n -t 0 -s 0 -S DLABEL -l "TCP" -L ""
n -t 0 -s 1 -S DLABEL -l "UDP" -L ""
n -t 0 -s 3 -S DLABEL -l "NULL-TCPSINK" -L ""
V -t * -v 1.0a5 -a 0
A -t * -n 1 -p 0 -o 0x7fffffff -c 30 -a 1
A -t * -h 1 -m 1073741823 -s 0
c -t * -i 1 -n blue
n -t * -a 0 -s 0 -S UP -v circle -c red -i red
n -t * -a 1 -s 1 -S UP -v circle -c blue -i blue
n -t * -a 2 -s 2 -S UP -v circle -c purple -i purple
n -t * -a 3 -s 3 -S UP -v circle -c orange -i orange
l -t * -s 0 -d 2 -S UP -r 200000 -D 0.01 -c black
l -t * -s 1 -d 2 -S UP -r 200000 -D 0.01 -c black
l -t * -s 2 -d 3 -S UP -r 200000 -D 0.01 -c black
+ -t 0.1 -s 0 -d 2 -p tcp -e 40 -c 1 -i 0 -a 1 -x {0.0 3.0 0 ------- null}
- -t 0.1 -s 0 -d 2 -p tcp -e 40 -c 1 -i 0 -a 1 -x {0.0 3.0 0 ------- null}
h -t 0.1 -s 0 -d 2 -p tcp -e 40 -c 1 -i 0 -a 1 -x {0.0 3.0 -1 ------- null}
r -t 0.1116 -s 0 -d 2 -p tcp -e 40 -c 1 -i 0 -a 1 -x {0.0 3.0 0 ------- null}
+ -t 0.1116 -s 2 -d 3 -p tcp -e 40 -c 1 -i 0 -a 1 -x {0.0 3.0 0 ------- null}
- -t 0.1116 -s 2 -d 3 -p tcp -e 40 -c 1 -i 0 -a 1 -x {0.0 3.0 0 ------- null}
h -t 0.1116 -s 2 -d 3 -p tcp -e 40 -c 1 -i 0 -a 1 -x {0.0 3.0 -1 ------- null}
r -t 0.1232 -s 2 -d 3 -p tcp -e 40 -c 1 -i 0 -a 1 -x {0.0 3.0 0 ------- null}
+ -t 0.1232 -s 3 -d 2 -p ack -e 40 -c 1 -i 1 -a 1 -x {3.0 0.0 0 ------- null}
- -t 0.1232 -s 3 -d 2 -p ack -e 40 -c 1 -i 1 -a 1 -x {3.0 0.0 0 ------- null}
h -t 0.1232 -s 3 -d 2 -p ack -e 40 -c 1 -i 1 -a 1 -x {3.0 0.0 -1 ------- null}
r -t 0.1348 -s 3 -d 2 -p ack -e 40 -c 1 -i 1 -a 1 -x {3.0 0.0 0 ------- null}
+ -t 0.1348 -s 2 -d 0 -p ack -e 40 -c 1 -i 1 -a 1 -x {3.0 0.0 0 ------- null}
- -t 0.1348 -s 2 -d 0 -p ack -e 40 -c 1 -i 1 -a 1 -x {3.0 0.0 0 ------- null}
h -t 0.1348 -s 2 -d 0 -p ack -e 40 -c 1 -i 1 -a 1 -x {3.0 0.0 -1 ------- null}
r -t 0.1464 -s 2 -d 0 -p ack -e 40 -c 1 -i 1 -a 1 -x {3.0 0.0 0 ------- null}
+ -t 0.1464 -s 0 -d 2 -p tcp -e 1040 -c 1 -i 2 -a 1 -x {0.0 3.0 1 ------- null}
- -t 0.1464 -s 0 -d 2 -p tcp -e 1040 -c 1 -i 2 -a 1 -x {0.0 3.0 1 ------- null}
h -t 0.1464 -s 0 -d 2 -p tcp -e 1040 -c 1 -i 2 -a 1 -x {0.0 3.0 -1 ------- null}
+ -t 0.1464 -s 0 -d 2 -p tcp -e 1040 -c 1 -i 3 -a 1 -x {0.0 3.0 2 ------- null}
- -t 0.188 -s 0 -d 2 -p tcp -e 1040 -c 1 -i 3 -a 1 -x {0.0 3.0 2 ------- null}
h -t 0.188 -s 0 -d 2 -p tcp -e 1040 -c 1 -i 3 -a 1 -x {0.0 3.0 -1 ------- null}
r -t 0.198 -s 0 -d 2 -p tcp -e 1040 -c 1 -i 2 -a 1 -x {0.0 3.0 1 ------- null}
+ -t 0.198 -s 2 -d 3 -p tcp -e 1040 -c 1 -i 2 -a 1 -x {0.0 3.0 1 ------- null}
- -t 0.198 -s 2 -d 3 -p tcp -e 1040 -c 1 -i 2 -a 1 -x {0.0 3.0 1 ------- null}
h -t 0.198 -s 2 -d 3 -p tcp -e 1040 -c 1 -i 2 -a 1 -x {0.0 3.0 -1 ------- null}
+ -t 0.2 -s 1 -d 2 -p cbr -e 500 -c 0 -i 4 -a 0 -x {1.0 3.1 0 ------- null}
- -t 0.2 -s 1 -d 2 -p cbr -e 500 -c 0 -i 4 -a 0 -x {1.0 3.1 0 ------- null}
h -t 0.2 -s 1 -d 2 -p cbr -e 500 -c 0 -i 4 -a 0 -x {1.0 3.1 -1 ------- null}
+ -t 0.205 -s 1 -d 2 -p cbr -e 500 -c 0 -i 5 -a 0 -x {1.0 3.1 1 ------- null}
+ -t 0.21 -s 1 -d 2 -p cbr -e 500 -c 0 -i 6 -a 0 -x {1.0 3.1 2 ------- null}
+ -t 0.215 -s 1 -d 2 -p cbr -e 500 -c 0 -i 7 -a 0 -x {1.0 3.1 3 ------- null}
- -t 0.22 -s 1 -d 2 -p cbr -e 500 -c 0 -i 5 -a 0 -x {1.0 3.1 1 ------- null}
h -t 0.22 -s 1 -d 2 -p cbr -e 500 -c 0 -i 5 -a 0 -x {1.0 3.1 -1 ------- null}
+ -t 0.22 -s 1 -d 2 -p cbr -e 500 -c 0 -i 8 -a 0 -x {1.0 3.1 4 ------- null}
+ -t 0.225 -s 1 -d 2 -p cbr -e 500 -c 0 -i 9 -a 0 -x {1.0 3.1 5 ------- null}
r -t 0.23 -s 1 -d 2 -p cbr -e 500 -c 0 -i 4 -a 0 -x {1.0 3.1 0 ------- null}
+ -t 0.23 -s 2 -d 3 -p cbr -e 500 -c 0 -i 4 -a 0 -x {1.0 3.1 0 ------- null}
+ -t 0.23 -s 1 -d 2 -p cbr -e 500 -c 0 -i 10 -a 0 -x {1.0 3.1 6 ------- null}
+ -t 0.235 -s 1 -d 2 -p cbr -e 500 -c 0 -i 11 -a 0 -x {1.0 3.1 7 ------- null}
r -t 0.2396 -s 0 -d 2 -p tcp -e 1040 -c 1 -i 3 -a 1 -x {0.0 3.0 2 ------- null}
+ -t 0.2396 -s 2 -d 3 -p tcp -e 1040 -c 1 -i 3 -a 1 -x {0.0 3.0 2 ------- null}
- -t 0.2396 -s 2 -d 3 -p cbr -e 500 -c 0 -i 4 -a 0 -x {1.0 3.1 0 ------- null}
h -t 0.2396 -s 2 -d 3 -p cbr -e 500 -c 0 -i 4 -a 0 -x {1.0 3.1 -1 ------- null}
- -t 0.24 -s 1 -d 2 -p cbr -e 500 -c 0 -i 6 -a 0 -x {1.0 3.1 2 ------- null}
h -t 0.24 -s 1 -d 2 -p cbr -e 500 -c 0 -i 6 -a 0 -x {1.0 3.1 -1 ------- null}
+ -t 0.24 -s 1 -d 2 -p cbr -e 500 -c 0 -i 12 -a 0 -x {1.0 3.1 8 ------- null}
+ -t 0.245 -s 1 -d 2 -p cbr -e 500 -c 0 -i 13 -a 0 -x {1.0 3.1 9 ------- null}
r -t 0.2496 -s 2 -d 3 -p tcp -e 1040 -c 1 -i 2 -a 1 -x {0.0 3.0 1 ------- null}
+ -t 0.2496 -s 3 -d 2 -p ack -e 40 -c 1 -i 14 -a 1 -x {3.0 0.0 1 ------- null}
- -t 0.2496 -s 3 -d 2 -p ack -e 40 -c 1 -i 14 -a 1 -x {3.0 0.0 1 ------- null}
h -t 0.2496 -s 3 -d 2 -p ack -e 40 -c 1 -i 14 -a 1 -x {3.0 0.0 -1 ------- null}
r -t 0.25 -s 1 -d 2 -p cbr -e 500 -c 0 -i 5 -a 0 -x {1.0 3.1 1 ------- null}
+ -t 0.25 -s 2 -d 3 -p cbr -e 500 -c 0 -i 5 -a 0 -x {1.0 3.1 1 ------- null}
+ -t 0.25 -s 1 -d 2 -p cbr -e 500 -c 0 -i 15 -a 0 -x {1.0 3.1 10 ------- null}
+ -t 0.255 -s 1 -d 2 -p cbr -e 500 -c 0 -i 16 -a 0 -x {1.0 3.1 11 ------- null}
- -t 0.2596 -s 2 -d 3 -p tcp -e 1040 -c 1 -i 3 -a 1 -x {0.0 3.0 2 ------- null}
h -t 0.2596 -s 2 -d 3 -p tcp -e 1040 -c 1 -i 3 -a 1 -x {0.0 3.0 -1 ------- null}
- -t 0.26 -s 1 -d 2 -p cbr -e 500 -c 0 -i 7 -a 0 -x {1.0 3.1 3 ------- null}
h -t 0.26 -s 1 -d 2 -p cbr -e 500 -c 0 -i 7 -a 0 -x {1.0 3.1 -1 ------- null}
+ -t 0.26 -s 1 -d 2 -p cbr -e 500 -c 0 -i 17 -a 0 -x {1.0 3.1 12 ------- null}
r -t 0.2612 -s 3 -d 2 -p ack -e 40 -c 1 -i 14 -a 1 -x {3.0 0.0 1 ------- null}
+ -t 0.2612 -s 2 -d 0 -p ack -e 40 -c 1 -i 14 -a 1 -x {3.0 0.0 1 ------- null}
- -t 0.2612 -s 2 -d 0 -p ack -e 40 -c 1 -i 14 -a 1 -x {3.0 0.0 1 ------- null}
h -t 0.2612 -s 2 -d 0 -p ack -e 40 -c 1 -i 14 -a 1 -x {3.0 0.0 -1 ------- null}
+ -t 0.265 -s 1 -d 2 -p cbr -e 500 -c 0 -i 18 -a 0 -x {1.0 3.1 13 ------- null}
r -t 0.2696 -s 2 -d 3 -p cbr -e 500 -c 0 -i 4 -a 0 -x {1.0 3.1 0 ------- null}
r -t 0.27 -s 1 -d 2 -p cbr -e 500 -c 0 -i 6 -a 0 -x {1.0 3.1 2 ------- null}
+ -t 0.27 -s 2 -d 3 -p cbr -e 500 -c 0 -i 6 -a 0 -x {1.0 3.1 2 ------- null}
+ -t 0.27 -s 1 -d 2 -p cbr -e 500 -c 0 -i 19 -a 0 -x {1.0 3.1 14 ------- null}
r -t 0.2728 -s 2 -d 0 -p ack -e 40 -c 1 -i 14 -a 1 -x {3.0 0.0 1 ------- null}
+ -t 0.2728 -s 0 -d 2 -p tcp -e 1040 -c 1 -i 20 -a 1 -x {0.0 3.0 3 ------- null}
- -t 0.2728 -s 0 -d 2 -p tcp -e 1040 -c 1 -i 20 -a 1 -x {0.0 3.0 3 ------- null}
h -t 0.2728 -s 0 -d 2 -p tcp -e 1040 -c 1 -i 20 -a 1 -x {0.0 3.0 -1 ------- null}
+ -t 0.2728 -s 0 -d 2 -p tcp -e 1040 -c 1 -i 21 -a 1 -x {0.0 3.0 4 ------- null}
+ -t 0.275 -s 1 -d 2 -p cbr -e 500 -c 0 -i 22 -a 0 -x {1.0 3.1 15 ------- null}
- -t 0.28 -s 1 -d 2 -p cbr -e 500 -c 0 -i 8 -a 0 -x {1.0 3.1 4 ------- null}
h -t 0.28 -s 1 -d 2 -p cbr -e 500 -c 0 -i 8 -a 0 -x {1.0 3.1 -1 ------- null}
+ -t 0.28 -s 1 -d 2 -p cbr -e 500 -c 0 -i 23 -a 0 -x {1.0 3.1 16 ------- null}
+ -t 0.285 -s 1 -d 2 -p cbr -e 500 -c 0 -i 24 -a 0 -x {1.0 3.1 17 ------- null}
r -t 0.29 -s 1 -d 2 -p cbr -e 500 -c 0 -i 7 -a 0 -x {1.0 3.1 3 ------- null}
+ -t 0.29 -s 2 -d 3 -p cbr -e 500 -c 0 -i 7 -a 0 -x {1.0 3.1 3 ------- null}
+ -t 0.29 -s 1 -d 2 -p cbr -e 500 -c 0 -i 25 -a 0 -x {1.0 3.1 18 ------- null}
+ -t 0.295 -s 1 -d 2 -p cbr -e 500 -c 0 -i 26 -a 0 -x {1.0 3.1 19 ------- null}
- -t 0.3 -s 1 -d 2 -p cbr -e 500 -c 0 -i 9 -a 0 -x {1.0 3.1 5 ------- null}
h -t 0.3 -s 1 -d 2 -p cbr -e 500 -c 0 -i 9 -a 0 -x {1.0 3.1 -1 ------- null}
+ -t 0.3 -s 1 -d 2 -p cbr -e 500 -c 0 -i 27 -a 0 -x {1.0 3.1 20 ------- null}
- -t 0.3012 -s 2 -d 3 -p cbr -e 500 -c 0 -i 5 -a 0 -x {1.0 3.1 1 ------- null}
h -t 0.3012 -s 2 -d 3 -p cbr -e 500 -c 0 -i 5 -a 0 -x {1.0 3.1 -1 ------- null}
+ -t 0.305 -s 1 -d 2 -p cbr -e 500 -c 0 -i 28 -a 0 -x {1.0 3.1 21 ------- null}
r -t 0.31 -s 1 -d 2 -p cbr -e 500 -c 0 -i 8 -a 0 -x {1.0 3.1 4 ------- null}
+ -t 0.31 -s 2 -d 3 -p cbr -e 500 -c 0 -i 8 -a 0 -x {1.0 3.1 4 ------- null}
+ -t 0.31 -s 1 -d 2 -p cbr -e 500 -c 0 -i 29 -a 0 -x {1.0 3.1 22 ------- null}
r -t 0.3112 -s 2 -d 3 -p tcp -e 1040 -c 1 -i 3 -a 1 -x {0.0 3.0 2 ------- null}
+ -t 0.3112 -s 3 -d 2 -p ack -e 40 -c 1 -i 30 -a 1 -x {3.0 0.0 2 ------- null}
- -t 0.3112 -s 3 -d 2 -p ack -e 40 -c 1 -i 30 -a 1 -x {3.0 0.0 2 ------- null}
h -t 0.3112 -s 3 -d 2 -p ack -e 40 -c 1 -i 30 -a 1 -x {3.0 0.0 -1 ------- null}
- -t 0.3144 -s 0 -d 2 -p tcp -e 1040 -c 1 -i 21 -a 1 -x {0.0 3.0 4 ------- null}
h -t 0.3144 -s 0 -d 2 -p tcp -e 1040 -c 1 -i 21 -a 1 -x {0.0 3.0 -1 ------- null}
+ -t 0.315 -s 1 -d 2 -p cbr -e 500 -c 0 -i 31 -a 0 -x {1.0 3.1 23 ------- null}
- -t 0.32 -s 1 -d 2 -p cbr -e 500 -c 0 -i 10 -a 0 -x {1.0 3.1 6 ------- null}
h -t 0.32 -s 1 -d 2 -p cbr -e 500 -c 0 -i 10 -a 0 -x {1.0 3.1 -1 ------- null}
+ -t 0.32 -s 1 -d 2 -p cbr -e 500 -c 0 -i 32 -a 0 -x {1.0 3.1 24 ------- null}
- -t 0.3212 -s 2 -d 3 -p cbr -e 500 -c 0 -i 6 -a 0 -x {1.0 3.1 2 ------- null}
h -t 0.3212 -s 2 -d 3 -p cbr -e 500 -c 0 -i 6 -a 0 -x {1.0 3.1 -1 ------- null}
r -t 0.3228 -s 3 -d 2 -p ack -e 40 -c 1 -i 30 -a 1 -x {3.0 0.0 2 ------- null}
+ -t 0.3228 -s 2 -d 0 -p ack -e 40 -c 1 -i 30 -a 1 -x {3.0 0.0 2 ------- null}
- -t 0.3228 -s 2 -d 0 -p ack -e 40 -c 1 -i 30 -a 1 -x {3.0 0.0 2 ------- null}
h -t 0.3228 -s 2 -d 0 -p ack -e 40 -c 1 -i 30 -a 1 -x {3.0 0.0 -1 ------- null}
r -t 0.3244 -s 0 -d 2 -p tcp -e 1040 -c 1 -i 20 -a 1 -x {0.0 3.0 3 ------- null}
+ -t 0.3244 -s 2 -d 3 -p tcp -e 1040 -c 1 -i 20 -a 1 -x {0.0 3.0 3 ------- null}
+ -t 0.325 -s 1 -d 2 -p cbr -e 500 -c 0 -i 33 -a 0 -x {1.0 3.1 25 ------- null}
r -t 0.33 -s 1 -d 2 -p cbr -e 500 -c 0 -i 9 -a 0 -x {1.0 3.1 5 ------- null}
+ -t 0.33 -s 2 -d 3 -p cbr -e 500 -c 0 -i 9 -a 0 -x {1.0 3.1 5 ------- null}
+ -t 0.33 -s 1 -d 2 -p cbr -e 500 -c 0 -i 34 -a 0 -x {1.0 3.1 26 ------- null}
r -t 0.3312 -s 2 -d 3 -p cbr -e 500 -c 0 -i 5 -a 0 -x {1.0 3.1 1 ------- null}
r -t 0.3344 -s 2 -d 0 -p ack -e 40 -c 1 -i 30 -a 1 -x {3.0 0.0 2 ------- null}
+ -t 0.3344 -s 0 -d 2 -p tcp -e 1040 -c 1 -i 35 -a 1 -x {0.0 3.0 5 ------- null}
+ -t 0.3344 -s 0 -d 2 -p tcp -e 1040 -c 1 -i 36 -a 1 -x {0.0 3.0 6 ------- null}
+ -t 0.335 -s 1 -d 2 -p cbr -e 500 -c 0 -i 37 -a 0 -x {1.0 3.1 27 ------- null}
- -t 0.34 -s 1 -d 2 -p cbr -e 500 -c 0 -i 11 -a 0 -x {1.0 3.1 7 ------- null}
h -t 0.34 -s 1 -d 2 -p cbr -e 500 -c 0 -i 11 -a 0 -x {1.0 3.1 -1 ------- null}
+ -t 0.34 -s 1 -d 2 -p cbr -e 500 -c 0 -i 38 -a 0 -x {1.0 3.1 28 ------- null}
- -t 0.3412 -s 2 -d 3 -p cbr -e 500 -c 0 -i 7 -a 0 -x {1.0 3.1 3 ------- null}
h -t 0.3412 -s 2 -d 3 -p cbr -e 500 -c 0 -i 7 -a 0 -x {1.0 3.1 -1 ------- null}
+ -t 0.345 -s 1 -d 2 -p cbr -e 500 -c 0 -i 39 -a 0 -x {1.0 3.1 29 ------- null}
r -t 0.35 -s 1 -d 2 -p cbr -e 500 -c 0 -i 10 -a 0 -x {1.0 3.1 6 ------- null}
+ -t 0.35 -s 2 -d 3 -p cbr -e 500 -c 0 -i 10 -a 0 -x {1.0 3.1 6 ------- null}
+ -t 0.35 -s 1 -d 2 -p cbr -e 500 -c 0 -i 40 -a 0 -x {1.0 3.1 30 ------- null}
r -t 0.3512 -s 2 -d 3 -p cbr -e 500 -c 0 -i 6 -a 0 -x {1.0 3.1 2 ------- null}
+ -t 0.355 -s 1 -d 2 -p cbr -e 500 -c 0 -i 41 -a 0 -x {1.0 3.1 31 ------- null}
- -t 0.356 -s 0 -d 2 -p tcp -e 1040 -c 1 -i 35 -a 1 -x {0.0 3.0 5 ------- null}
h -t 0.356 -s 0 -d 2 -p tcp -e 1040 -c 1 -i 35 -a 1 -x {0.0 3.0 -1 ------- null}
- -t 0.36 -s 1 -d 2 -p cbr -e 500 -c 0 -i 12 -a 0 -x {1.0 3.1 8 ------- null}
h -t 0.36 -s 1 -d 2 -p cbr -e 500 -c 0 -i 12 -a 0 -x {1.0 3.1 -1 ------- null}
+ -t 0.36 -s 1 -d 2 -p cbr -e 500 -c 0 -i 42 -a 0 -x {1.0 3.1 32 ------- null}
- -t 0.3612 -s 2 -d 3 -p cbr -e 500 -c 0 -i 8 -a 0 -x {1.0 3.1 4 ------- null}
h -t 0.3612 -s 2 -d 3 -p cbr -e 500 -c 0 -i 8 -a 0 -x {1.0 3.1 -1 ------- null}
+ -t 0.365 -s 1 -d 2 -p cbr -e 500 -c 0 -i 43 -a 0 -x {1.0 3.1 33 ------- null}
r -t 0.366 -s 0 -d 2 -p tcp -e 1040 -c 1 -i 21 -a 1 -x {0.0 3.0 4 ------- null}
+ -t 0.366 -s 2 -d 3 -p tcp -e 1040 -c 1 -i 21 -a 1 -x {0.0 3.0 4 ------- null}
r -t 0.37 -s 1 -d 2 -p cbr -e 500 -c 0 -i 11 -a 0 -x {1.0 3.1 7 ------- null}
+ -t 0.37 -s 2 -d 3 -p cbr -e 500 -c 0 -i 11 -a 0 -x {1.0 3.1 7 ------- null}
+ -t 0.37 -s 1 -d 2 -p cbr -e 500 -c 0 -i 44 -a 0 -x {1.0 3.1 34 ------- null}
r -t 0.3712 -s 2 -d 3 -p cbr -e 500 -c 0 -i 7 -a 0 -x {1.0 3.1 3 ------- null}
+ -t 0.375 -s 1 -d 2 -p cbr -e 500 -c 0 -i 45 -a 0 -x {1.0 3.1 35 ------- null}
- -t 0.38 -s 1 -d 2 -p cbr -e 500 -c 0 -i 13 -a 0 -x {1.0 3.1 9 ------- null}
h -t 0.38 -s 1 -d 2 -p cbr -e 500 -c 0 -i 13 -a 0 -x {1.0 3.1 -1 ------- null}
+ -t 0.38 -s 1 -d 2 -p cbr -e 500 -c 0 -i 46 -a 0 -x {1.0 3.1 36 ------- null}
- -t 0.3812 -s 2 -d 3 -p tcp -e 1040 -c 1 -i 20 -a 1 -x {0.0 3.0 3 ------- null}
h -t 0.3812 -s 2 -d 3 -p tcp -e 1040 -c 1 -i 20 -a 1 -x {0.0 3.0 -1 ------- null}
+ -t 0.385 -s 1 -d 2 -p cbr -e 500 -c 0 -i 47 -a 0 -x {1.0 3.1 37 ------- null}
r -t 0.39 -s 1 -d 2 -p cbr -e 500 -c 0 -i 12 -a 0 -x {1.0 3.1 8 ------- null}
+ -t 0.39 -s 2 -d 3 -p cbr -e 500 -c 0 -i 12 -a 0 -x {1.0 3.1 8 ------- null}
+ -t 0.39 -s 1 -d 2 -p cbr -e 500 -c 0 -i 48 -a 0 -x {1.0 3.1 38 ------- null}
r -t 0.3912 -s 2 -d 3 -p cbr -e 500 -c 0 -i 8 -a 0 -x {1.0 3.1 4 ------- null}
+ -t 0.395 -s 1 -d 2 -p cbr -e 500 -c 0 -i 49 -a 0 -x {1.0 3.1 39 ------- null}
- -t 0.3976 -s 0 -d 2 -p tcp -e 1040 -c 1 -i 36 -a 1 -x {0.0 3.0 6 ------- null}
h -t 0.3976 -s 0 -d 2 -p tcp -e 1040 -c 1 -i 36 -a 1 -x {0.0 3.0 -1 ------- null}
- -t 0.4 -s 1 -d 2 -p cbr -e 500 -c 0 -i 15 -a 0 -x {1.0 3.1 10 ------- null}
h -t 0.4 -s 1 -d 2 -p cbr -e 500 -c 0 -i 15 -a 0 -x {1.0 3.1 -1 ------- null}
+ -t 0.4 -s 1 -d 2 -p cbr -e 500 -c 0 -i 50 -a 0 -x {1.0 3.1 40 ------- null}
+ -t 0.405 -s 1 -d 2 -p cbr -e 500 -c 0 -i 51 -a 0 -x {1.0 3.1 41 ------- null}
r -t 0.4076 -s 0 -d 2 -p tcp -e 1040 -c 1 -i 35 -a 1 -x {0.0 3.0 5 ------- null}
+ -t 0.4076 -s 2 -d 3 -p tcp -e 1040 -c 1 -i 35 -a 1 -x {0.0 3.0 5 ------- null}
r -t 0.41 -s 1 -d 2 -p cbr -e 500 -c 0 -i 13 -a 0 -x {1.0 3.1 9 ------- null}
+ -t 0.41 -s 2 -d 3 -p cbr -e 500 -c 0 -i 13 -a 0 -x {1.0 3.1 9 ------- null}
+ -t 0.41 -s 1 -d 2 -p cbr -e 500 -c 0 -i 52 -a 0 -x {1.0 3.1 42 ------- null}
+ -t 0.415 -s 1 -d 2 -p cbr -e 500 -c 0 -i 53 -a 0 -x {1.0 3.1 43 ------- null}
- -t 0.42 -s 1 -d 2 -p cbr -e 500 -c 0 -i 16 -a 0 -x {1.0 3.1 11 ------- null}
h -t 0.42 -s 1 -d 2 -p cbr -e 500 -c 0 -i 16 -a 0 -x {1.0 3.1 -1 ------- null}
+ -t 0.42 -s 1 -d 2 -p cbr -e 500 -c 0 -i 54 -a 0 -x {1.0 3.1 44 ------- null}
- -t 0.4228 -s 2 -d 3 -p cbr -e 500 -c 0 -i 9 -a 0 -x {1.0 3.1 5 ------- null}
h -t 0.4228 -s 2 -d 3 -p cbr -e 500 -c 0 -i 9 -a 0 -x {1.0 3.1 -1 ------- null}
+ -t 0.425 -s 1 -d 2 -p cbr -e 500 -c 0 -i 55 -a 0 -x {1.0 3.1 45 ------- null}
r -t 0.43 -s 1 -d 2 -p cbr -e 500 -c 0 -i 15 -a 0 -x {1.0 3.1 10 ------- null}
+ -t 0.43 -s 2 -d 3 -p cbr -e 500 -c 0 -i 15 -a 0 -x {1.0 3.1 10 ------- null}
+ -t 0.43 -s 1 -d 2 -p cbr -e 500 -c 0 -i 56 -a 0 -x {1.0 3.1 46 ------- null}
r -t 0.4328 -s 2 -d 3 -p tcp -e 1040 -c 1 -i 20 -a 1 -x {0.0 3.0 3 ------- null}
+ -t 0.4328 -s 3 -d 2 -p ack -e 40 -c 1 -i 57 -a 1 -x {3.0 0.0 3 ------- null}
- -t 0.4328 -s 3 -d 2 -p ack -e 40 -c 1 -i 57 -a 1 -x {3.0 0.0 3 ------- null}
h -t 0.4328 -s 3 -d 2 -p ack -e 40 -c 1 -i 57 -a 1 -x {3.0 0.0 -1 ------- null}
+ -t 0.435 -s 1 -d 2 -p cbr -e 500 -c 0 -i 58 -a 0 -x {1.0 3.1 47 ------- null}
- -t 0.44 -s 1 -d 2 -p cbr -e 500 -c 0 -i 17 -a 0 -x {1.0 3.1 12 ------- null}
h -t 0.44 -s 1 -d 2 -p cbr -e 500 -c 0 -i 17 -a 0 -x {1.0 3.1 -1 ------- null}
+ -t 0.44 -s 1 -d 2 -p cbr -e 500 -c 0 -i 59 -a 0 -x {1.0 3.1 48 ------- null}
- -t 0.4428 -s 2 -d 3 -p cbr -e 500 -c 0 -i 10 -a 0 -x {1.0 3.1 6 ------- null}
h -t 0.4428 -s 2 -d 3 -p cbr -e 500 -c 0 -i 10 -a 0 -x {1.0 3.1 -1 ------- null}
r -t 0.4444 -s 3 -d 2 -p ack -e 40 -c 1 -i 57 -a 1 -x {3.0 0.0 3 ------- null}
+ -t 0.4444 -s 2 -d 0 -p ack -e 40 -c 1 -i 57 -a 1 -x {3.0 0.0 3 ------- null}
- -t 0.4444 -s 2 -d 0 -p ack -e 40 -c 1 -i 57 -a 1 -x {3.0 0.0 3 ------- null}
h -t 0.4444 -s 2 -d 0 -p ack -e 40 -c 1 -i 57 -a 1 -x {3.0 0.0 -1 ------- null}
+ -t 0.445 -s 1 -d 2 -p cbr -e 500 -c 0 -i 60 -a 0 -x {1.0 3.1 49 ------- null}
r -t 0.4492 -s 0 -d 2 -p tcp -e 1040 -c 1 -i 36 -a 1 -x {0.0 3.0 6 ------- null}
+ -t 0.4492 -s 2 -d 3 -p tcp -e 1040 -c 1 -i 36 -a 1 -x {0.0 3.0 6 ------- null}
r -t 0.45 -s 1 -d 2 -p cbr -e 500 -c 0 -i 16 -a 0 -x {1.0 3.1 11 ------- null}
+ -t 0.45 -s 2 -d 3 -p cbr -e 500 -c 0 -i 16 -a 0 -x {1.0 3.1 11 ------- null}
+ -t 0.45 -s 1 -d 2 -p cbr -e 500 -c 0 -i 61 -a 0 -x {1.0 3.1 50 ------- null}
r -t 0.4528 -s 2 -d 3 -p cbr -e 500 -c 0 -i 9 -a 0 -x {1.0 3.1 5 ------- null}
+ -t 0.455 -s 1 -d 2 -p cbr -e 500 -c 0 -i 62 -a 0 -x {1.0 3.1 51 ------- null}
r -t 0.456 -s 2 -d 0 -p ack -e 40 -c 1 -i 57 -a 1 -x {3.0 0.0 3 ------- null}
+ -t 0.456 -s 0 -d 2 -p tcp -e 1040 -c 1 -i 63 -a 1 -x {0.0 3.0 7 ------- null}
- -t 0.456 -s 0 -d 2 -p tcp -e 1040 -c 1 -i 63 -a 1 -x {0.0 3.0 7 ------- null}
h -t 0.456 -s 0 -d 2 -p tcp -e 1040 -c 1 -i 63 -a 1 -x {0.0 3.0 -1 ------- null}
+ -t 0.456 -s 0 -d 2 -p tcp -e 1040 -c 1 -i 64 -a 1 -x {0.0 3.0 8 ------- null}
- -t 0.46 -s 1 -d 2 -p cbr -e 500 -c 0 -i 18 -a 0 -x {1.0 3.1 13 ------- null}
h -t 0.46 -s 1 -d 2 -p cbr -e 500 -c 0 -i 18 -a 0 -x {1.0 3.1 -1 ------- null}
+ -t 0.46 -s 1 -d 2 -p cbr -e 500 -c 0 -i 65 -a 0 -x {1.0 3.1 52 ------- null}
- -t 0.4628 -s 2 -d 3 -p tcp -e 1040 -c 1 -i 21 -a 1 -x {0.0 3.0 4 ------- null}
h -t 0.4628 -s 2 -d 3 -p tcp -e 1040 -c 1 -i 21 -a 1 -x {0.0 3.0 -1 ------- null}
+ -t 0.465 -s 1 -d 2 -p cbr -e 500 -c 0 -i 66 -a 0 -x {1.0 3.1 53 ------- null}
r -t 0.47 -s 1 -d 2 -p cbr -e 500 -c 0 -i 17 -a 0 -x {1.0 3.1 12 ------- null}
+ -t 0.47 -s 2 -d 3 -p cbr -e 500 -c 0 -i 17 -a 0 -x {1.0 3.1 12 ------- null}
+ -t 0.47 -s 1 -d 2 -p cbr -e 500 -c 0 -i 67 -a 0 -x {1.0 3.1 54 ------- null}
r -t 0.4728 -s 2 -d 3 -p cbr -e 500 -c 0 -i 10 -a 0 -x {1.0 3.1 6 ------- null}
+ -t 0.475 -s 1 -d 2 -p cbr -e 500 -c 0 -i 68 -a 0 -x {1.0 3.1 55 ------- null}
- -t 0.48 -s 1 -d 2 -p cbr -e 500 -c 0 -i 19 -a 0 -x {1.0 3.1 14 ------- null}
h -t 0.48 -s 1 -d 2 -p cbr -e 500 -c 0 -i 19 -a 0 -x {1.0 3.1 -1 ------- null}
+ -t 0.48 -s 1 -d 2 -p cbr -e 500 -c 0 -i 69 -a 0 -x {1.0 3.1 56 ------- null}
+ -t 0.485 -s 1 -d 2 -p cbr -e 500 -c 0 -i 70 -a 0 -x {1.0 3.1 57 ------- null}
r -t 0.49 -s 1 -d 2 -p cbr -e 500 -c 0 -i 18 -a 0 -x {1.0 3.1 13 ------- null}
+ -t 0.49 -s 2 -d 3 -p cbr -e 500 -c 0 -i 18 -a 0 -x {1.0 3.1 13 ------- null}
+ -t 0.49 -s 1 -d 2 -p cbr -e 500 -c 0 -i 71 -a 0 -x {1.0 3.1 58 ------- null}
+ -t 0.495 -s 1 -d 2 -p cbr -e 500 -c 0 -i 72 -a 0 -x {1.0 3.1 59 ------- null}
- -t 0.4976 -s 0 -d 2 -p tcp -e 1040 -c 1 -i 64 -a 1 -x {0.0 3.0 8 ------- null}
h -t 0.4976 -s 0 -d 2 -p tcp -e 1040 -c 1 -i 64 -a 1 -x {0.0 3.0 -1 ------- null}
- -t 0.5 -s 1 -d 2 -p cbr -e 500 -c 0 -i 22 -a 0 -x {1.0 3.1 15 ------- null}
h -t 0.5 -s 1 -d 2 -p cbr -e 500 -c 0 -i 22 -a 0 -x {1.0 3.1 -1 ------- null}
+ -t 0.5 -s 1 -d 2 -p cbr -e 500 -c 0 -i 73 -a 0 -x {1.0 3.1 60 ------- null}
- -t 0.5044 -s 2 -d 3 -p cbr -e 500 -c 0 -i 11 -a 0 -x {1.0 3.1 7 ------- null}
h -t 0.5044 -s 2 -d 3 -p cbr -e 500 -c 0 -i 11 -a 0 -x {1.0 3.1 -1 ------- null}
+ -t 0.505 -s 1 -d 2 -p cbr -e 500 -c 0 -i 74 -a 0 -x {1.0 3.1 61 ------- null}
r -t 0.5076 -s 0 -d 2 -p tcp -e 1040 -c 1 -i 63 -a 1 -x {0.0 3.0 7 ------- null}
+ -t 0.5076 -s 2 -d 3 -p tcp -e 1040 -c 1 -i 63 -a 1 -x {0.0 3.0 7 ------- null}
r -t 0.51 -s 1 -d 2 -p cbr -e 500 -c 0 -i 19 -a 0 -x {1.0 3.1 14 ------- null}
+ -t 0.51 -s 2 -d 3 -p cbr -e 500 -c 0 -i 19 -a 0 -x {1.0 3.1 14 ------- null}
+ -t 0.51 -s 1 -d 2 -p cbr -e 500 -c 0 -i 75 -a 0 -x {1.0 3.1 62 ------- null}
r -t 0.5144 -s 2 -d 3 -p tcp -e 1040 -c 1 -i 21 -a 1 -x {0.0 3.0 4 ------- null}
+ -t 0.5144 -s 3 -d 2 -p ack -e 40 -c 1 -i 76 -a 1 -x {3.0 0.0 4 ------- null}
- -t 0.5144 -s 3 -d 2 -p ack -e 40 -c 1 -i 76 -a 1 -x {3.0 0.0 4 ------- null}
h -t 0.5144 -s 3 -d 2 -p ack -e 40 -c 1 -i 76 -a 1 -x {3.0 0.0 -1 ------- null}
+ -t 0.515 -s 1 -d 2 -p cbr -e 500 -c 0 -i 77 -a 0 -x {1.0 3.1 63 ------- null}
- -t 0.52 -s 1 -d 2 -p cbr -e 500 -c 0 -i 23 -a 0 -x {1.0 3.1 16 ------- null}
h -t 0.52 -s 1 -d 2 -p cbr -e 500 -c 0 -i 23 -a 0 -x {1.0 3.1 -1 ------- null}
+ -t 0.52 -s 1 -d 2 -p cbr -e 500 -c 0 -i 78 -a 0 -x {1.0 3.1 64 ------- null}
- -t 0.5244 -s 2 -d 3 -p cbr -e 500 -c 0 -i 12 -a 0 -x {1.0 3.1 8 ------- null}
h -t 0.5244 -s 2 -d 3 -p cbr -e 500 -c 0 -i 12 -a 0 -x {1.0 3.1 -1 ------- null}
+ -t 0.525 -s 1 -d 2 -p cbr -e 500 -c 0 -i 79 -a 0 -x {1.0 3.1 65 ------- null}
r -t 0.526 -s 3 -d 2 -p ack -e 40 -c 1 -i 76 -a 1 -x {3.0 0.0 4 ------- null}
+ -t 0.526 -s 2 -d 0 -p ack -e 40 -c 1 -i 76 -a 1 -x {3.0 0.0 4 ------- null}
- -t 0.526 -s 2 -d 0 -p ack -e 40 -c 1 -i 76 -a 1 -x {3.0 0.0 4 ------- null}
h -t 0.526 -s 2 -d 0 -p ack -e 40 -c 1 -i 76 -a 1 -x {3.0 0.0 -1 ------- null}
r -t 0.53 -s 1 -d 2 -p cbr -e 500 -c 0 -i 22 -a 0 -x {1.0 3.1 15 ------- null}
+ -t 0.53 -s 2 -d 3 -p cbr -e 500 -c 0 -i 22 -a 0 -x {1.0 3.1 15 ------- null}
+ -t 0.53 -s 1 -d 2 -p cbr -e 500 -c 0 -i 80 -a 0 -x {1.0 3.1 66 ------- null}
d -t 0.53 -s 1 -d 2 -p cbr -e 500 -c 0 -i 80 -a 0 -x {1.0 3.1 66 ------- null}
r -t 0.5344 -s 2 -d 3 -p cbr -e 500 -c 0 -i 11 -a 0 -x {1.0 3.1 7 ------- null}
+ -t 0.535 -s 1 -d 2 -p cbr -e 500 -c 0 -i 81 -a 0 -x {1.0 3.1 67 ------- null}
d -t 0.535 -s 1 -d 2 -p cbr -e 500 -c 0 -i 81 -a 0 -x {1.0 3.1 67 ------- null}
r -t 0.5376 -s 2 -d 0 -p ack -e 40 -c 1 -i 76 -a 1 -x {3.0 0.0 4 ------- null}
+ -t 0.5376 -s 0 -d 2 -p tcp -e 1040 -c 1 -i 82 -a 1 -x {0.0 3.0 9 ------- null}
+ -t 0.5376 -s 0 -d 2 -p tcp -e 1040 -c 1 -i 83 -a 1 -x {0.0 3.0 10 ------- null}
- -t 0.5392 -s 0 -d 2 -p tcp -e 1040 -c 1 -i 82 -a 1 -x {0.0 3.0 9 ------- null}
h -t 0.5392 -s 0 -d 2 -p tcp -e 1040 -c 1 -i 82 -a 1 -x {0.0 3.0 -1 ------- null}
- -t 0.54 -s 1 -d 2 -p cbr -e 500 -c 0 -i 24 -a 0 -x {1.0 3.1 17 ------- null}
h -t 0.54 -s 1 -d 2 -p cbr -e 500 -c 0 -i 24 -a 0 -x {1.0 3.1 -1 ------- null}
+ -t 0.54 -s 1 -d 2 -p cbr -e 500 -c 0 -i 84 -a 0 -x {1.0 3.1 68 ------- null}
- -t 0.5444 -s 2 -d 3 -p tcp -e 1040 -c 1 -i 35 -a 1 -x {0.0 3.0 5 ------- null}
h -t 0.5444 -s 2 -d 3 -p tcp -e 1040 -c 1 -i 35 -a 1 -x {0.0 3.0 -1 ------- null}
+ -t 0.545 -s 1 -d 2 -p cbr -e 500 -c 0 -i 85 -a 0 -x {1.0 3.1 69 ------- null}
d -t 0.545 -s 1 -d 2 -p cbr -e 500 -c 0 -i 85 -a 0 -x {1.0 3.1 69 ------- null}
r -t 0.5492 -s 0 -d 2 -p tcp -e 1040 -c 1 -i 64 -a 1 -x {0.0 3.0 8 ------- null}
+ -t 0.5492 -s 2 -d 3 -p tcp -e 1040 -c 1 -i 64 -a 1 -x {0.0 3.0 8 ------- null}
r -t 0.55 -s 1 -d 2 -p cbr -e 500 -c 0 -i 23 -a 0 -x {1.0 3.1 16 ------- null}
+ -t 0.55 -s 2 -d 3 -p cbr -e 500 -c 0 -i 23 -a 0 -x {1.0 3.1 16 ------- null}
+ -t 0.55 -s 1 -d 2 -p cbr -e 500 -c 0 -i 86 -a 0 -x {1.0 3.1 70 ------- null}
d -t 0.55 -s 1 -d 2 -p cbr -e 500 -c 0 -i 86 -a 0 -x {1.0 3.1 70 ------- null}
r -t 0.5544 -s 2 -d 3 -p cbr -e 500 -c 0 -i 12 -a 0 -x {1.0 3.1 8 ------- null}
+ -t 0.555 -s 1 -d 2 -p cbr -e 500 -c 0 -i 87 -a 0 -x {1.0 3.1 71 ------- null}
d -t 0.555 -s 1 -d 2 -p cbr -e 500 -c 0 -i 87 -a 0 -x {1.0 3.1 71 ------- null}
- -t 0.56 -s 1 -d 2 -p cbr -e 500 -c 0 -i 25 -a 0 -x {1.0 3.1 18 ------- null}
h -t 0.56 -s 1 -d 2 -p cbr -e 500 -c 0 -i 25 -a 0 -x {1.0 3.1 -1 ------- null}
+ -t 0.56 -s 1 -d 2 -p cbr -e 500 -c 0 -i 88 -a 0 -x {1.0 3.1 72 ------- null}
+ -t 0.565 -s 1 -d 2 -p cbr -e 500 -c 0 -i 89 -a 0 -x {1.0 3.1 73 ------- null}
d -t 0.565 -s 1 -d 2 -p cbr -e 500 -c 0 -i 89 -a 0 -x {1.0 3.1 73 ------- null}
r -t 0.57 -s 1 -d 2 -p cbr -e 500 -c 0 -i 24 -a 0 -x {1.0 3.1 17 ------- null}
+ -t 0.57 -s 2 -d 3 -p cbr -e 500 -c 0 -i 24 -a 0 -x {1.0 3.1 17 ------- null}
+ -t 0.57 -s 1 -d 2 -p cbr -e 500 -c 0 -i 90 -a 0 -x {1.0 3.1 74 ------- null}
d -t 0.57 -s 1 -d 2 -p cbr -e 500 -c 0 -i 90 -a 0 -x {1.0 3.1 74 ------- null}
+ -t 0.575 -s 1 -d 2 -p cbr -e 500 -c 0 -i 91 -a 0 -x {1.0 3.1 75 ------- null}
d -t 0.575 -s 1 -d 2 -p cbr -e 500 -c 0 -i 91 -a 0 -x {1.0 3.1 75 ------- null}
- -t 0.58 -s 1 -d 2 -p cbr -e 500 -c 0 -i 26 -a 0 -x {1.0 3.1 19 ------- null}
h -t 0.58 -s 1 -d 2 -p cbr -e 500 -c 0 -i 26 -a 0 -x {1.0 3.1 -1 ------- null}
+ -t 0.58 -s 1 -d 2 -p cbr -e 500 -c 0 -i 92 -a 0 -x {1.0 3.1 76 ------- null}
- -t 0.5808 -s 0 -d 2 -p tcp -e 1040 -c 1 -i 83 -a 1 -x {0.0 3.0 10 ------- null}
h -t 0.5808 -s 0 -d 2 -p tcp -e 1040 -c 1 -i 83 -a 1 -x {0.0 3.0 -1 ------- null}
+ -t 0.585 -s 1 -d 2 -p cbr -e 500 -c 0 -i 93 -a 0 -x {1.0 3.1 77 ------- null}
d -t 0.585 -s 1 -d 2 -p cbr -e 500 -c 0 -i 93 -a 0 -x {1.0 3.1 77 ------- null}
- -t 0.586 -s 2 -d 3 -p cbr -e 500 -c 0 -i 13 -a 0 -x {1.0 3.1 9 ------- null}
h -t 0.586 -s 2 -d 3 -p cbr -e 500 -c 0 -i 13 -a 0 -x {1.0 3.1 -1 ------- null}
r -t 0.59 -s 1 -d 2 -p cbr -e 500 -c 0 -i 25 -a 0 -x {1.0 3.1 18 ------- null}
+ -t 0.59 -s 2 -d 3 -p cbr -e 500 -c 0 -i 25 -a 0 -x {1.0 3.1 18 ------- null}
+ -t 0.59 -s 1 -d 2 -p cbr -e 500 -c 0 -i 94 -a 0 -x {1.0 3.1 78 ------- null}
d -t 0.59 -s 1 -d 2 -p cbr -e 500 -c 0 -i 94 -a 0 -x {1.0 3.1 78 ------- null}
r -t 0.5908 -s 0 -d 2 -p tcp -e 1040 -c 1 -i 82 -a 1 -x {0.0 3.0 9 ------- null}
+ -t 0.5908 -s 2 -d 3 -p tcp -e 1040 -c 1 -i 82 -a 1 -x {0.0 3.0 9 ------- null}
+ -t 0.595 -s 1 -d 2 -p cbr -e 500 -c 0 -i 95 -a 0 -x {1.0 3.1 79 ------- null}
d -t 0.595 -s 1 -d 2 -p cbr -e 500 -c 0 -i 95 -a 0 -x {1.0 3.1 79 ------- null}
r -t 0.596 -s 2 -d 3 -p tcp -e 1040 -c 1 -i 35 -a 1 -x {0.0 3.0 5 ------- null}
+ -t 0.596 -s 3 -d 2 -p ack -e 40 -c 1 -i 96 -a 1 -x {3.0 0.0 5 ------- null}
- -t 0.596 -s 3 -d 2 -p ack -e 40 -c 1 -i 96 -a 1 -x {3.0 0.0 5 ------- null}
h -t 0.596 -s 3 -d 2 -p ack -e 40 -c 1 -i 96 -a 1 -x {3.0 0.0 -1 ------- null}
- -t 0.6 -s 1 -d 2 -p cbr -e 500 -c 0 -i 27 -a 0 -x {1.0 3.1 20 ------- null}
h -t 0.6 -s 1 -d 2 -p cbr -e 500 -c 0 -i 27 -a 0 -x {1.0 3.1 -1 ------- null}
+ -t 0.6 -s 1 -d 2 -p cbr -e 500 -c 0 -i 97 -a 0 -x {1.0 3.1 80 ------- null}
+ -t 0.605 -s 1 -d 2 -p cbr -e 500 -c 0 -i 98 -a 0 -x {1.0 3.1 81 ------- null}
d -t 0.605 -s 1 -d 2 -p cbr -e 500 -c 0 -i 98 -a 0 -x {1.0 3.1 81 ------- null}
- -t 0.606 -s 2 -d 3 -p cbr -e 500 -c 0 -i 15 -a 0 -x {1.0 3.1 10 ------- null}
h -t 0.606 -s 2 -d 3 -p cbr -e 500 -c 0 -i 15 -a 0 -x {1.0 3.1 -1 ------- null}
r -t 0.6076 -s 3 -d 2 -p ack -e 40 -c 1 -i 96 -a 1 -x {3.0 0.0 5 ------- null}
+ -t 0.6076 -s 2 -d 0 -p ack -e 40 -c 1 -i 96 -a 1 -x {3.0 0.0 5 ------- null}
- -t 0.6076 -s 2 -d 0 -p ack -e 40 -c 1 -i 96 -a 1 -x {3.0 0.0 5 ------- null}
h -t 0.6076 -s 2 -d 0 -p ack -e 40 -c 1 -i 96 -a 1 -x {3.0 0.0 -1 ------- null}
r -t 0.61 -s 1 -d 2 -p cbr -e 500 -c 0 -i 26 -a 0 -x {1.0 3.1 19 ------- null}
+ -t 0.61 -s 2 -d 3 -p cbr -e 500 -c 0 -i 26 -a 0 -x {1.0 3.1 19 ------- null}
+ -t 0.61 -s 1 -d 2 -p cbr -e 500 -c 0 -i 99 -a 0 -x {1.0 3.1 82 ------- null}
d -t 0.61 -s 1 -d 2 -p cbr -e 500 -c 0 -i 99 -a 0 -x {1.0 3.1 82 ------- null}
+ -t 0.615 -s 1 -d 2 -p cbr -e 500 -c 0 -i 100 -a 0 -x {1.0 3.1 83 ------- null}
d -t 0.615 -s 1 -d 2 -p cbr -e 500 -c 0 -i 100 -a 0 -x {1.0 3.1 83 ------- null}
r -t 0.616 -s 2 -d 3 -p cbr -e 500 -c 0 -i 13 -a 0 -x {1.0 3.1 9 ------- null}
r -t 0.6192 -s 2 -d 0 -p ack -e 40 -c 1 -i 96 -a 1 -x {3.0 0.0 5 ------- null}
+ -t 0.6192 -s 0 -d 2 -p tcp -e 1040 -c 1 -i 101 -a 1 -x {0.0 3.0 11 ------- null}
+ -t 0.6192 -s 0 -d 2 -p tcp -e 1040 -c 1 -i 102 -a 1 -x {0.0 3.0 12 ------- null}
- -t 0.62 -s 1 -d 2 -p cbr -e 500 -c 0 -i 28 -a 0 -x {1.0 3.1 21 ------- null}
h -t 0.62 -s 1 -d 2 -p cbr -e 500 -c 0 -i 28 -a 0 -x {1.0 3.1 -1 ------- null}
+ -t 0.62 -s 1 -d 2 -p cbr -e 500 -c 0 -i 103 -a 0 -x {1.0 3.1 84 ------- null}
- -t 0.6224 -s 0 -d 2 -p tcp -e 1040 -c 1 -i 101 -a 1 -x {0.0 3.0 11 ------- null}
h -t 0.6224 -s 0 -d 2 -p tcp -e 1040 -c 1 -i 101 -a 1 -x {0.0 3.0 -1 ------- null}
+ -t 0.625 -s 1 -d 2 -p cbr -e 500 -c 0 -i 104 -a 0 -x {1.0 3.1 85 ------- null}
d -t 0.625 -s 1 -d 2 -p cbr -e 500 -c 0 -i 104 -a 0 -x {1.0 3.1 85 ------- null}
- -t 0.626 -s 2 -d 3 -p tcp -e 1040 -c 1 -i 36 -a 1 -x {0.0 3.0 6 ------- null}
h -t 0.626 -s 2 -d 3 -p tcp -e 1040 -c 1 -i 36 -a 1 -x {0.0 3.0 -1 ------- null}
r -t 0.63 -s 1 -d 2 -p cbr -e 500 -c 0 -i 27 -a 0 -x {1.0 3.1 20 ------- null}
+ -t 0.63 -s 2 -d 3 -p cbr -e 500 -c 0 -i 27 -a 0 -x {1.0 3.1 20 ------- null}
+ -t 0.63 -s 1 -d 2 -p cbr -e 500 -c 0 -i 105 -a 0 -x {1.0 3.1 86 ------- null}
d -t 0.63 -s 1 -d 2 -p cbr -e 500 -c 0 -i 105 -a 0 -x {1.0 3.1 86 ------- null}
r -t 0.6324 -s 0 -d 2 -p tcp -e 1040 -c 1 -i 83 -a 1 -x {0.0 3.0 10 ------- null}
+ -t 0.6324 -s 2 -d 3 -p tcp -e 1040 -c 1 -i 83 -a 1 -x {0.0 3.0 10 ------- null}
+ -t 0.635 -s 1 -d 2 -p cbr -e 500 -c 0 -i 106 -a 0 -x {1.0 3.1 87 ------- null}
d -t 0.635 -s 1 -d 2 -p cbr -e 500 -c 0 -i 106 -a 0 -x {1.0 3.1 87 ------- null}
r -t 0.636 -s 2 -d 3 -p cbr -e 500 -c 0 -i 15 -a 0 -x {1.0 3.1 10 ------- null}
- -t 0.64 -s 1 -d 2 -p cbr -e 500 -c 0 -i 29 -a 0 -x {1.0 3.1 22 ------- null}
h -t 0.64 -s 1 -d 2 -p cbr -e 500 -c 0 -i 29 -a 0 -x {1.0 3.1 -1 ------- null}
+ -t 0.64 -s 1 -d 2 -p cbr -e 500 -c 0 -i 107 -a 0 -x {1.0 3.1 88 ------- null}
+ -t 0.645 -s 1 -d 2 -p cbr -e 500 -c 0 -i 108 -a 0 -x {1.0 3.1 89 ------- null}
d -t 0.645 -s 1 -d 2 -p cbr -e 500 -c 0 -i 108 -a 0 -x {1.0 3.1 89 ------- null}
r -t 0.65 -s 1 -d 2 -p cbr -e 500 -c 0 -i 28 -a 0 -x {1.0 3.1 21 ------- null}
+ -t 0.65 -s 2 -d 3 -p cbr -e 500 -c 0 -i 28 -a 0 -x {1.0 3.1 21 ------- null}
+ -t 0.65 -s 1 -d 2 -p cbr -e 500 -c 0 -i 109 -a 0 -x {1.0 3.1 90 ------- null}
d -t 0.65 -s 1 -d 2 -p cbr -e 500 -c 0 -i 109 -a 0 -x {1.0 3.1 90 ------- null}
+ -t 0.655 -s 1 -d 2 -p cbr -e 500 -c 0 -i 110 -a 0 -x {1.0 3.1 91 ------- null}
d -t 0.655 -s 1 -d 2 -p cbr -e 500 -c 0 -i 110 -a 0 -x {1.0 3.1 91 ------- null}
- -t 0.66 -s 1 -d 2 -p cbr -e 500 -c 0 -i 31 -a 0 -x {1.0 3.1 23 ------- null}
h -t 0.66 -s 1 -d 2 -p cbr -e 500 -c 0 -i 31 -a 0 -x {1.0 3.1 -1 ------- null}
+ -t 0.66 -s 1 -d 2 -p cbr -e 500 -c 0 -i 111 -a 0 -x {1.0 3.1 92 ------- null}
- -t 0.664 -s 0 -d 2 -p tcp -e 1040 -c 1 -i 102 -a 1 -x {0.0 3.0 12 ------- null}
h -t 0.664 -s 0 -d 2 -p tcp -e 1040 -c 1 -i 102 -a 1 -x {0.0 3.0 -1 ------- null}
+ -t 0.665 -s 1 -d 2 -p cbr -e 500 -c 0 -i 112 -a 0 -x {1.0 3.1 93 ------- null}
d -t 0.665 -s 1 -d 2 -p cbr -e 500 -c 0 -i 112 -a 0 -x {1.0 3.1 93 ------- null}
- -t 0.6676 -s 2 -d 3 -p cbr -e 500 -c 0 -i 16 -a 0 -x {1.0 3.1 11 ------- null}