+ 0.1 0 2 tcp 40 ------- 1 0.0 3.0 0 0
- 0.1 0 2 tcp 40 ------- 1 0.0 3.0 0 0
r 0.1116 0 2 tcp 40 ------- 1 0.0 3.0 0 0
+ 0.1116 2 3 tcp 40 ------- 1 0.0 3.0 0 0
- 0.1116 2 3 tcp 40 ------- 1 0.0 3.0 0 0
r 0.1232 2 3 tcp 40 ------- 1 0.0 3.0 0 0
+ 0.1232 3 2 ack 40 ------- 1 3.0 0.0 0 1
- 0.1232 3 2 ack 40 ------- 1 3.0 0.0 0 1
r 0.1348 3 2 ack 40 ------- 1 3.0 0.0 0 1
+ 0.1348 2 0 ack 40 ------- 1 3.0 0.0 0 1
- 0.1348 2 0 ack 40 ------- 1 3.0 0.0 0 1
r 0.1464 2 0 ack 40 ------- 1 3.0 0.0 0 1
+ 0.1464 0 2 tcp 1040 ------- 1 0.0 3.0 1 2
- 0.1464 0 2 tcp 1040 ------- 1 0.0 3.0 1 2
+ 0.1464 0 2 tcp 1040 ------- 1 0.0 3.0 2 3
- 0.188 0 2 tcp 1040 ------- 1 0.0 3.0 2 3
r 0.198 0 2 tcp 1040 ------- 1 0.0 3.0 1 2
+ 0.198 2 3 tcp 1040 ------- 1 0.0 3.0 1 2
- 0.198 2 3 tcp 1040 ------- 1 0.0 3.0 1 2
+ 0.2 1 2 cbr 500 ------- 0 1.0 3.1 0 4
- 0.2 1 2 cbr 500 ------- 0 1.0 3.1 0 4
+ 0.205 1 2 cbr 500 ------- 0 1.0 3.1 1 5
+ 0.21 1 2 cbr 500 ------- 0 1.0 3.1 2 6
+ 0.215 1 2 cbr 500 ------- 0 1.0 3.1 3 7
- 0.22 1 2 cbr 500 ------- 0 1.0 3.1 1 5
+ 0.22 1 2 cbr 500 ------- 0 1.0 3.1 4 8
+ 0.225 1 2 cbr 500 ------- 0 1.0 3.1 5 9
r 0.23 1 2 cbr 500 ------- 0 1.0 3.1 0 4
+ 0.23 2 3 cbr 500 ------- 0 1.0 3.1 0 4
+ 0.23 1 2 cbr 500 ------- 0 1.0 3.1 6 10
+ 0.235 1 2 cbr 500 ------- 0 1.0 3.1 7 11
r 0.2396 0 2 tcp 1040 ------- 1 0.0 3.0 2 3
+ 0.2396 2 3 tcp 1040 ------- 1 0.0 3.0 2 3
- 0.2396 2 3 cbr 500 ------- 0 1.0 3.1 0 4
- 0.24 1 2 cbr 500 ------- 0 1.0 3.1 2 6
+ 0.24 1 2 cbr 500 ------- 0 1.0 3.1 8 12
+ 0.245 1 2 cbr 500 ------- 0 1.0 3.1 9 13
r 0.2496 2 3 tcp 1040 ------- 1 0.0 3.0 1 2
+ 0.2496 3 2 ack 40 ------- 1 3.0 0.0 1 14
- 0.2496 3 2 ack 40 ------- 1 3.0 0.0 1 14
r 0.25 1 2 cbr 500 ------- 0 1.0 3.1 1 5
+ 0.25 2 3 cbr 500 ------- 0 1.0 3.1 1 5
+ 0.25 1 2 cbr 500 ------- 0 1.0 3.1 10 15
+ 0.255 1 2 cbr 500 ------- 0 1.0 3.1 11 16
- 0.2596 2 3 tcp 1040 ------- 1 0.0 3.0 2 3
- 0.26 1 2 cbr 500 ------- 0 1.0 3.1 3 7
+ 0.26 1 2 cbr 500 ------- 0 1.0 3.1 12 17
r 0.2612 3 2 ack 40 ------- 1 3.0 0.0 1 14
+ 0.2612 2 0 ack 40 ------- 1 3.0 0.0 1 14
- 0.2612 2 0 ack 40 ------- 1 3.0 0.0 1 14
+ 0.265 1 2 cbr 500 ------- 0 1.0 3.1 13 18
r 0.2696 2 3 cbr 500 ------- 0 1.0 3.1 0 4
r 0.27 1 2 cbr 500 ------- 0 1.0 3.1 2 6
+ 0.27 2 3 cbr 500 ------- 0 1.0 3.1 2 6
+ 0.27 1 2 cbr 500 ------- 0 1.0 3.1 14 19
r 0.2728 2 0 ack 40 ------- 1 3.0 0.0 1 14
+ 0.2728 0 2 tcp 1040 ------- 1 0.0 3.0 3 20
- 0.2728 0 2 tcp 1040 ------- 1 0.0 3.0 3 20
+ 0.2728 0 2 tcp 1040 ------- 1 0.0 3.0 4 21
+ 0.275 1 2 cbr 500 ------- 0 1.0 3.1 15 22
- 0.28 1 2 cbr 500 ------- 0 1.0 3.1 4 8
+ 0.28 1 2 cbr 500 ------- 0 1.0 3.1 16 23
+ 0.285 1 2 cbr 500 ------- 0 1.0 3.1 17 24
r 0.29 1 2 cbr 500 ------- 0 1.0 3.1 3 7
+ 0.29 2 3 cbr 500 ------- 0 1.0 3.1 3 7
+ 0.29 1 2 cbr 500 ------- 0 1.0 3.1 18 25
+ 0.295 1 2 cbr 500 ------- 0 1.0 3.1 19 26
- 0.3 1 2 cbr 500 ------- 0 1.0 3.1 5 9
+ 0.3 1 2 cbr 500 ------- 0 1.0 3.1 20 27
- 0.3012 2 3 cbr 500 ------- 0 1.0 3.1 1 5
+ 0.305 1 2 cbr 500 ------- 0 1.0 3.1 21 28
r 0.31 1 2 cbr 500 ------- 0 1.0 3.1 4 8
+ 0.31 2 3 cbr 500 ------- 0 1.0 3.1 4 8
+ 0.31 1 2 cbr 500 ------- 0 1.0 3.1 22 29
r 0.3112 2 3 tcp 1040 ------- 1 0.0 3.0 2 3
+ 0.3112 3 2 ack 40 ------- 1 3.0 0.0 2 30
- 0.3112 3 2 ack 40 ------- 1 3.0 0.0 2 30
- 0.3144 0 2 tcp 1040 ------- 1 0.0 3.0 4 21
+ 0.315 1 2 cbr 500 ------- 0 1.0 3.1 23 31
- 0.32 1 2 cbr 500 ------- 0 1.0 3.1 6 10
+ 0.32 1 2 cbr 500 ------- 0 1.0 3.1 24 32
- 0.3212 2 3 cbr 500 ------- 0 1.0 3.1 2 6
r 0.3228 3 2 ack 40 ------- 1 3.0 0.0 2 30
+ 0.3228 2 0 ack 40 ------- 1 3.0 0.0 2 30
- 0.3228 2 0 ack 40 ------- 1 3.0 0.0 2 30
r 0.3244 0 2 tcp 1040 ------- 1 0.0 3.0 3 20
+ 0.3244 2 3 tcp 1040 ------- 1 0.0 3.0 3 20
+ 0.325 1 2 cbr 500 ------- 0 1.0 3.1 25 33
r 0.33 1 2 cbr 500 ------- 0 1.0 3.1 5 9
+ 0.33 2 3 cbr 500 ------- 0 1.0 3.1 5 9
+ 0.33 1 2 cbr 500 ------- 0 1.0 3.1 26 34
r 0.3312 2 3 cbr 500 ------- 0 1.0 3.1 1 5
r 0.3344 2 0 ack 40 ------- 1 3.0 0.0 2 30
+ 0.3344 0 2 tcp 1040 ------- 1 0.0 3.0 5 35
+ 0.3344 0 2 tcp 1040 ------- 1 0.0 3.0 6 36
+ 0.335 1 2 cbr 500 ------- 0 1.0 3.1 27 37
- 0.34 1 2 cbr 500 ------- 0 1.0 3.1 7 11
+ 0.34 1 2 cbr 500 ------- 0 1.0 3.1 28 38
- 0.3412 2 3 cbr 500 ------- 0 1.0 3.1 3 7
+ 0.345 1 2 cbr 500 ------- 0 1.0 3.1 29 39
r 0.35 1 2 cbr 500 ------- 0 1.0 3.1 6 10
+ 0.35 2 3 cbr 500 ------- 0 1.0 3.1 6 10
+ 0.35 1 2 cbr 500 ------- 0 1.0 3.1 30 40
r 0.3512 2 3 cbr 500 ------- 0 1.0 3.1 2 6
+ 0.355 1 2 cbr 500 ------- 0 1.0 3.1 31 41
- 0.356 0 2 tcp 1040 ------- 1 0.0 3.0 5 35
- 0.36 1 2 cbr 500 ------- 0 1.0 3.1 8 12
+ 0.36 1 2 cbr 500 ------- 0 1.0 3.1 32 42
- 0.3612 2 3 cbr 500 ------- 0 1.0 3.1 4 8
+ 0.365 1 2 cbr 500 ------- 0 1.0 3.1 33 43
r 0.366 0 2 tcp 1040 ------- 1 0.0 3.0 4 21
+ 0.366 2 3 tcp 1040 ------- 1 0.0 3.0 4 21
r 0.37 1 2 cbr 500 ------- 0 1.0 3.1 7 11
+ 0.37 2 3 cbr 500 ------- 0 1.0 3.1 7 11
+ 0.37 1 2 cbr 500 ------- 0 1.0 3.1 34 44
r 0.3712 2 3 cbr 500 ------- 0 1.0 3.1 3 7
+ 0.375 1 2 cbr 500 ------- 0 1.0 3.1 35 45
- 0.38 1 2 cbr 500 ------- 0 1.0 3.1 9 13
+ 0.38 1 2 cbr 500 ------- 0 1.0 3.1 36 46
- 0.3812 2 3 tcp 1040 ------- 1 0.0 3.0 3 20
+ 0.385 1 2 cbr 500 ------- 0 1.0 3.1 37 47
r 0.39 1 2 cbr 500 ------- 0 1.0 3.1 8 12
+ 0.39 2 3 cbr 500 ------- 0 1.0 3.1 8 12
+ 0.39 1 2 cbr 500 ------- 0 1.0 3.1 38 48
r 0.3912 2 3 cbr 500 ------- 0 1.0 3.1 4 8
+ 0.395 1 2 cbr 500 ------- 0 1.0 3.1 39 49
- 0.3976 0 2 tcp 1040 ------- 1 0.0 3.0 6 36
- 0.4 1 2 cbr 500 ------- 0 1.0 3.1 10 15
+ 0.4 1 2 cbr 500 ------- 0 1.0 3.1 40 50
+ 0.405 1 2 cbr 500 ------- 0 1.0 3.1 41 51
r 0.4076 0 2 tcp 1040 ------- 1 0.0 3.0 5 35
+ 0.4076 2 3 tcp 1040 ------- 1 0.0 3.0 5 35
r 0.41 1 2 cbr 500 ------- 0 1.0 3.1 9 13
+ 0.41 2 3 cbr 500 ------- 0 1.0 3.1 9 13
+ 0.41 1 2 cbr 500 ------- 0 1.0 3.1 42 52
+ 0.415 1 2 cbr 500 ------- 0 1.0 3.1 43 53
- 0.42 1 2 cbr 500 ------- 0 1.0 3.1 11 16
+ 0.42 1 2 cbr 500 ------- 0 1.0 3.1 44 54
- 0.4228 2 3 cbr 500 ------- 0 1.0 3.1 5 9
+ 0.425 1 2 cbr 500 ------- 0 1.0 3.1 45 55
r 0.43 1 2 cbr 500 ------- 0 1.0 3.1 10 15
+ 0.43 2 3 cbr 500 ------- 0 1.0 3.1 10 15
+ 0.43 1 2 cbr 500 ------- 0 1.0 3.1 46 56
r 0.4328 2 3 tcp 1040 ------- 1 0.0 3.0 3 20
+ 0.4328 3 2 ack 40 ------- 1 3.0 0.0 3 57
- 0.4328 3 2 ack 40 ------- 1 3.0 0.0 3 57
+ 0.435 1 2 cbr 500 ------- 0 1.0 3.1 47 58
- 0.44 1 2 cbr 500 ------- 0 1.0 3.1 12 17
+ 0.44 1 2 cbr 500 ------- 0 1.0 3.1 48 59
- 0.4428 2 3 cbr 500 ------- 0 1.0 3.1 6 10
r 0.4444 3 2 ack 40 ------- 1 3.0 0.0 3 57
+ 0.4444 2 0 ack 40 ------- 1 3.0 0.0 3 57
- 0.4444 2 0 ack 40 ------- 1 3.0 0.0 3 57
+ 0.445 1 2 cbr 500 ------- 0 1.0 3.1 49 60
r 0.4492 0 2 tcp 1040 ------- 1 0.0 3.0 6 36
+ 0.4492 2 3 tcp 1040 ------- 1 0.0 3.0 6 36
r 0.45 1 2 cbr 500 ------- 0 1.0 3.1 11 16
+ 0.45 2 3 cbr 500 ------- 0 1.0 3.1 11 16
+ 0.45 1 2 cbr 500 ------- 0 1.0 3.1 50 61
r 0.4528 2 3 cbr 500 ------- 0 1.0 3.1 5 9
+ 0.455 1 2 cbr 500 ------- 0 1.0 3.1 51 62
r 0.456 2 0 ack 40 ------- 1 3.0 0.0 3 57
+ 0.456 0 2 tcp 1040 ------- 1 0.0 3.0 7 63
- 0.456 0 2 tcp 1040 ------- 1 0.0 3.0 7 63
+ 0.456 0 2 tcp 1040 ------- 1 0.0 3.0 8 64
- 0.46 1 2 cbr 500 ------- 0 1.0 3.1 13 18
+ 0.46 1 2 cbr 500 ------- 0 1.0 3.1 52 65
- 0.4628 2 3 tcp 1040 ------- 1 0.0 3.0 4 21
+ 0.465 1 2 cbr 500 ------- 0 1.0 3.1 53 66
r 0.47 1 2 cbr 500 ------- 0 1.0 3.1 12 17
+ 0.47 2 3 cbr 500 ------- 0 1.0 3.1 12 17
+ 0.47 1 2 cbr 500 ------- 0 1.0 3.1 54 67
r 0.4728 2 3 cbr 500 ------- 0 1.0 3.1 6 10
+ 0.475 1 2 cbr 500 ------- 0 1.0 3.1 55 68
- 0.48 1 2 cbr 500 ------- 0 1.0 3.1 14 19
+ 0.48 1 2 cbr 500 ------- 0 1.0 3.1 56 69
+ 0.485 1 2 cbr 500 ------- 0 1.0 3.1 57 70
r 0.49 1 2 cbr 500 ------- 0 1.0 3.1 13 18
+ 0.49 2 3 cbr 500 ------- 0 1.0 3.1 13 18
+ 0.49 1 2 cbr 500 ------- 0 1.0 3.1 58 71
+ 0.495 1 2 cbr 500 ------- 0 1.0 3.1 59 72
- 0.4976 0 2 tcp 1040 ------- 1 0.0 3.0 8 64
- 0.5 1 2 cbr 500 ------- 0 1.0 3.1 15 22
+ 0.5 1 2 cbr 500 ------- 0 1.0 3.1 60 73
- 0.5044 2 3 cbr 500 ------- 0 1.0 3.1 7 11
+ 0.505 1 2 cbr 500 ------- 0 1.0 3.1 61 74
r 0.5076 0 2 tcp 1040 ------- 1 0.0 3.0 7 63
+ 0.5076 2 3 tcp 1040 ------- 1 0.0 3.0 7 63
r 0.51 1 2 cbr 500 ------- 0 1.0 3.1 14 19
+ 0.51 2 3 cbr 500 ------- 0 1.0 3.1 14 19
+ 0.51 1 2 cbr 500 ------- 0 1.0 3.1 62 75
r 0.5144 2 3 tcp 1040 ------- 1 0.0 3.0 4 21
+ 0.5144 3 2 ack 40 ------- 1 3.0 0.0 4 76
- 0.5144 3 2 ack 40 ------- 1 3.0 0.0 4 76
+ 0.515 1 2 cbr 500 ------- 0 1.0 3.1 63 77
- 0.52 1 2 cbr 500 ------- 0 1.0 3.1 16 23
+ 0.52 1 2 cbr 500 ------- 0 1.0 3.1 64 78
- 0.5244 2 3 cbr 500 ------- 0 1.0 3.1 8 12
+ 0.525 1 2 cbr 500 ------- 0 1.0 3.1 65 79
r 0.526 3 2 ack 40 ------- 1 3.0 0.0 4 76
+ 0.526 2 0 ack 40 ------- 1 3.0 0.0 4 76
- 0.526 2 0 ack 40 ------- 1 3.0 0.0 4 76
r 0.53 1 2 cbr 500 ------- 0 1.0 3.1 15 22
+ 0.53 2 3 cbr 500 ------- 0 1.0 3.1 15 22
+ 0.53 1 2 cbr 500 ------- 0 1.0 3.1 66 80
d 0.53 1 2 cbr 500 ------- 0 1.0 3.1 66 80
r 0.5344 2 3 cbr 500 ------- 0 1.0 3.1 7 11
+ 0.535 1 2 cbr 500 ------- 0 1.0 3.1 67 81
d 0.535 1 2 cbr 500 ------- 0 1.0 3.1 67 81
r 0.5376 2 0 ack 40 ------- 1 3.0 0.0 4 76
+ 0.5376 0 2 tcp 1040 ------- 1 0.0 3.0 9 82
+ 0.5376 0 2 tcp 1040 ------- 1 0.0 3.0 10 83
- 0.5392 0 2 tcp 1040 ------- 1 0.0 3.0 9 82
- 0.54 1 2 cbr 500 ------- 0 1.0 3.1 17 24
+ 0.54 1 2 cbr 500 ------- 0 1.0 3.1 68 84
- 0.5444 2 3 tcp 1040 ------- 1 0.0 3.0 5 35
+ 0.545 1 2 cbr 500 ------- 0 1.0 3.1 69 85
d 0.545 1 2 cbr 500 ------- 0 1.0 3.1 69 85
r 0.5492 0 2 tcp 1040 ------- 1 0.0 3.0 8 64
+ 0.5492 2 3 tcp 1040 ------- 1 0.0 3.0 8 64
r 0.55 1 2 cbr 500 ------- 0 1.0 3.1 16 23
+ 0.55 2 3 cbr 500 ------- 0 1.0 3.1 16 23
+ 0.55 1 2 cbr 500 ------- 0 1.0 3.1 70 86
d 0.55 1 2 cbr 500 ------- 0 1.0 3.1 70 86
r 0.5544 2 3 cbr 500 ------- 0 1.0 3.1 8 12
+ 0.555 1 2 cbr 500 ------- 0 1.0 3.1 71 87
d 0.555 1 2 cbr 500 ------- 0 1.0 3.1 71 87
- 0.56 1 2 cbr 500 ------- 0 1.0 3.1 18 25
+ 0.56 1 2 cbr 500 ------- 0 1.0 3.1 72 88
+ 0.565 1 2 cbr 500 ------- 0 1.0 3.1 73 89
d 0.565 1 2 cbr 500 ------- 0 1.0 3.1 73 89
r 0.57 1 2 cbr 500 ------- 0 1.0 3.1 17 24
+ 0.57 2 3 cbr 500 ------- 0 1.0 3.1 17 24
+ 0.57 1 2 cbr 500 ------- 0 1.0 3.1 74 90
d 0.57 1 2 cbr 500 ------- 0 1.0 3.1 74 90
+ 0.575 1 2 cbr 500 ------- 0 1.0 3.1 75 91
d 0.575 1 2 cbr 500 ------- 0 1.0 3.1 75 91
- 0.58 1 2 cbr 500 ------- 0 1.0 3.1 19 26
+ 0.58 1 2 cbr 500 ------- 0 1.0 3.1 76 92
- 0.5808 0 2 tcp 1040 ------- 1 0.0 3.0 10 83
+ 0.585 1 2 cbr 500 ------- 0 1.0 3.1 77 93
d 0.585 1 2 cbr 500 ------- 0 1.0 3.1 77 93
- 0.586 2 3 cbr 500 ------- 0 1.0 3.1 9 13
r 0.59 1 2 cbr 500 ------- 0 1.0 3.1 18 25
+ 0.59 2 3 cbr 500 ------- 0 1.0 3.1 18 25
+ 0.59 1 2 cbr 500 ------- 0 1.0 3.1 78 94
d 0.59 1 2 cbr 500 ------- 0 1.0 3.1 78 94
r 0.5908 0 2 tcp 1040 ------- 1 0.0 3.0 9 82
+ 0.5908 2 3 tcp 1040 ------- 1 0.0 3.0 9 82
+ 0.595 1 2 cbr 500 ------- 0 1.0 3.1 79 95
d 0.595 1 2 cbr 500 ------- 0 1.0 3.1 79 95
r 0.596 2 3 tcp 1040 ------- 1 0.0 3.0 5 35
+ 0.596 3 2 ack 40 ------- 1 3.0 0.0 5 96
- 0.596 3 2 ack 40 ------- 1 3.0 0.0 5 96
- 0.6 1 2 cbr 500 ------- 0 1.0 3.1 20 27
+ 0.6 1 2 cbr 500 ------- 0 1.0 3.1 80 97
+ 0.605 1 2 cbr 500 ------- 0 1.0 3.1 81 98
d 0.605 1 2 cbr 500 ------- 0 1.0 3.1 81 98
- 0.606 2 3 cbr 500 ------- 0 1.0 3.1 10 15
r 0.6076 3 2 ack 40 ------- 1 3.0 0.0 5 96
+ 0.6076 2 0 ack 40 ------- 1 3.0 0.0 5 96
- 0.6076 2 0 ack 40 ------- 1 3.0 0.0 5 96
r 0.61 1 2 cbr 500 ------- 0 1.0 3.1 19 26
+ 0.61 2 3 cbr 500 ------- 0 1.0 3.1 19 26
+ 0.61 1 2 cbr 500 ------- 0 1.0 3.1 82 99
d 0.61 1 2 cbr 500 ------- 0 1.0 3.1 82 99
+ 0.615 1 2 cbr 500 ------- 0 1.0 3.1 83 100
d 0.615 1 2 cbr 500 ------- 0 1.0 3.1 83 100
r 0.616 2 3 cbr 500 ------- 0 1.0 3.1 9 13
r 0.6192 2 0 ack 40 ------- 1 3.0 0.0 5 96
+ 0.6192 0 2 tcp 1040 ------- 1 0.0 3.0 11 101
+ 0.6192 0 2 tcp 1040 ------- 1 0.0 3.0 12 102
- 0.62 1 2 cbr 500 ------- 0 1.0 3.1 21 28
+ 0.62 1 2 cbr 500 ------- 0 1.0 3.1 84 103
- 0.6224 0 2 tcp 1040 ------- 1 0.0 3.0 11 101
+ 0.625 1 2 cbr 500 ------- 0 1.0 3.1 85 104
d 0.625 1 2 cbr 500 ------- 0 1.0 3.1 85 104
- 0.626 2 3 tcp 1040 ------- 1 0.0 3.0 6 36
r 0.63 1 2 cbr 500 ------- 0 1.0 3.1 20 27
+ 0.63 2 3 cbr 500 ------- 0 1.0 3.1 20 27
+ 0.63 1 2 cbr 500 ------- 0 1.0 3.1 86 105
d 0.63 1 2 cbr 500 ------- 0 1.0 3.1 86 105
r 0.6324 0 2 tcp 1040 ------- 1 0.0 3.0 10 83
+ 0.6324 2 3 tcp 1040 ------- 1 0.0 3.0 10 83
+ 0.635 1 2 cbr 500 ------- 0 1.0 3.1 87 106
d 0.635 1 2 cbr 500 ------- 0 1.0 3.1 87 106
r 0.636 2 3 cbr 500 ------- 0 1.0 3.1 10 15
- 0.64 1 2 cbr 500 ------- 0 1.0 3.1 22 29
+ 0.64 1 2 cbr 500 ------- 0 1.0 3.1 88 107
+ 0.645 1 2 cbr 500 ------- 0 1.0 3.1 89 108
d 0.645 1 2 cbr 500 ------- 0 1.0 3.1 89 108
r 0.65 1 2 cbr 500 ------- 0 1.0 3.1 21 28
+ 0.65 2 3 cbr 500 ------- 0 1.0 3.1 21 28
+ 0.65 1 2 cbr 500 ------- 0 1.0 3.1 90 109
d 0.65 1 2 cbr 500 ------- 0 1.0 3.1 90 109
+ 0.655 1 2 cbr 500 ------- 0 1.0 3.1 91 110
d 0.655 1 2 cbr 500 ------- 0 1.0 3.1 91 110
- 0.66 1 2 cbr 500 ------- 0 1.0 3.1 23 31
+ 0.66 1 2 cbr 500 ------- 0 1.0 3.1 92 111
- 0.664 0 2 tcp 1040 ------- 1 0.0 3.0 12 102
+ 0.665 1 2 cbr 500 ------- 0 1.0 3.1 93 112
d 0.665 1 2 cbr 500 ------- 0 1.0 3.1 93 112
- 0.6676 2 3 cbr 500 ------- 0 1.0 3.1 11 16
r 0.67 1 2 cbr 500 ------- 0 1.0 3.1 22 29
+ 0.67 2 3 cbr 500 ------- 0 1.0 3.1 22 29
+ 0.67 1 2 cbr 500 ------- 0 1.0 3.1 94 113
d 0.67 1 2 cbr 500 ------- 0 1.0 3.1 94 113
r 0.674 0 2 tcp 1040 ------- 1 0.0 3.0 11 101
+ 0.674 2 3 tcp 1040 ------- 1 0.0 3.0 11 101
+ 0.675 1 2 cbr 500 ------- 0 1.0 3.1 95 114
d 0.675 1 2 cbr 500 ------- 0 1.0 3.1 95 114
r 0.6776 2 3 tcp 1040 ------- 1 0.0 3.0 6 36
+ 0.6776 3 2 ack 40 ------- 1 3.0 0.0 6 115
- 0.6776 3 2 ack 40 ------- 1 3.0 0.0 6 115
- 0.68 1 2 cbr 500 ------- 0 1.0 3.1 24 32
+ 0.68 1 2 cbr 500 ------- 0 1.0 3.1 96 116
+ 0.685 1 2 cbr 500 ------- 0 1.0 3.1 97 117
d 0.685 1 2 cbr 500 ------- 0 1.0 3.1 97 117
- 0.6876 2 3 cbr 500 ------- 0 1.0 3.1 12 17
r 0.6892 3 2 ack 40 ------- 1 3.0 0.0 6 115
+ 0.6892 2 0 ack 40 ------- 1 3.0 0.0 6 115
- 0.6892 2 0 ack 40 ------- 1 3.0 0.0 6 115
r 0.69 1 2 cbr 500 ------- 0 1.0 3.1 23 31
+ 0.69 2 3 cbr 500 ------- 0 1.0 3.1 23 31
+ 0.69 1 2 cbr 500 ------- 0 1.0 3.1 98 118
d 0.69 1 2 cbr 500 ------- 0 1.0 3.1 98 118
+ 0.695 1 2 cbr 500 ------- 0 1.0 3.1 99 119
d 0.695 1 2 cbr 500 ------- 0 1.0 3.1 99 119
r 0.6976 2 3 cbr 500 ------- 0 1.0 3.1 11 16
- 0.7 1 2 cbr 500 ------- 0 1.0 3.1 25 33
+ 0.7 1 2 cbr 500 ------- 0 1.0 3.1 100 120
r 0.7008 2 0 ack 40 ------- 1 3.0 0.0 6 115
+ 0.7008 0 2 tcp 1040 ------- 1 0.0 3.0 13 121
+ 0.7008 0 2 tcp 1040 ------- 1 0.0 3.0 14 122
+ 0.705 1 2 cbr 500 ------- 0 1.0 3.1 101 123
d 0.705 1 2 cbr 500 ------- 0 1.0 3.1 101 123
- 0.7056 0 2 tcp 1040 ------- 1 0.0 3.0 13 121
- 0.7076 2 3 cbr 500 ------- 0 1.0 3.1 13 18
r 0.71 1 2 cbr 500 ------- 0 1.0 3.1 24 32
+ 0.71 2 3 cbr 500 ------- 0 1.0 3.1 24 32
+ 0.71 1 2 cbr 500 ------- 0 1.0 3.1 102 124
d 0.71 1 2 cbr 500 ------- 0 1.0 3.1 102 124
+ 0.715 1 2 cbr 500 ------- 0 1.0 3.1 103 125
d 0.715 1 2 cbr 500 ------- 0 1.0 3.1 103 125
r 0.7156 0 2 tcp 1040 ------- 1 0.0 3.0 12 102
+ 0.7156 2 3 tcp 1040 ------- 1 0.0 3.0 12 102
r 0.7176 2 3 cbr 500 ------- 0 1.0 3.1 12 17
- 0.72 1 2 cbr 500 ------- 0 1.0 3.1 26 34
+ 0.72 1 2 cbr 500 ------- 0 1.0 3.1 104 126
+ 0.725 1 2 cbr 500 ------- 0 1.0 3.1 105 127
d 0.725 1 2 cbr 500 ------- 0 1.0 3.1 105 127
- 0.7276 2 3 tcp 1040 ------- 1 0.0 3.0 7 63
r 0.73 1 2 cbr 500 ------- 0 1.0 3.1 25 33
+ 0.73 2 3 cbr 500 ------- 0 1.0 3.1 25 33
+ 0.73 1 2 cbr 500 ------- 0 1.0 3.1 106 128
d 0.73 1 2 cbr 500 ------- 0 1.0 3.1 106 128
+ 0.735 1 2 cbr 500 ------- 0 1.0 3.1 107 129
d 0.735 1 2 cbr 500 ------- 0 1.0 3.1 107 129
r 0.7376 2 3 cbr 500 ------- 0 1.0 3.1 13 18
- 0.74 1 2 cbr 500 ------- 0 1.0 3.1 27 37
+ 0.74 1 2 cbr 500 ------- 0 1.0 3.1 108 130
+ 0.745 1 2 cbr 500 ------- 0 1.0 3.1 109 131
d 0.745 1 2 cbr 500 ------- 0 1.0 3.1 109 131
- 0.7472 0 2 tcp 1040 ------- 1 0.0 3.0 14 122
r 0.75 1 2 cbr 500 ------- 0 1.0 3.1 26 34
+ 0.75 2 3 cbr 500 ------- 0 1.0 3.1 26 34
+ 0.75 1 2 cbr 500 ------- 0 1.0 3.1 110 132
d 0.75 1 2 cbr 500 ------- 0 1.0 3.1 110 132
+ 0.755 1 2 cbr 500 ------- 0 1.0 3.1 111 133
d 0.755 1 2 cbr 500 ------- 0 1.0 3.1 111 133
r 0.7572 0 2 tcp 1040 ------- 1 0.0 3.0 13 121
+ 0.7572 2 3 tcp 1040 ------- 1 0.0 3.0 13 121
- 0.76 1 2 cbr 500 ------- 0 1.0 3.1 28 38
+ 0.76 1 2 cbr 500 ------- 0 1.0 3.1 112 134
+ 0.765 1 2 cbr 500 ------- 0 1.0 3.1 113 135
d 0.765 1 2 cbr 500 ------- 0 1.0 3.1 113 135
- 0.7692 2 3 cbr 500 ------- 0 1.0 3.1 14 19
r 0.77 1 2 cbr 500 ------- 0 1.0 3.1 27 37
+ 0.77 2 3 cbr 500 ------- 0 1.0 3.1 27 37
+ 0.77 1 2 cbr 500 ------- 0 1.0 3.1 114 136
d 0.77 1 2 cbr 500 ------- 0 1.0 3.1 114 136
+ 0.775 1 2 cbr 500 ------- 0 1.0 3.1 115 137
d 0.775 1 2 cbr 500 ------- 0 1.0 3.1 115 137
r 0.7792 2 3 tcp 1040 ------- 1 0.0 3.0 7 63
+ 0.7792 3 2 ack 40 ------- 1 3.0 0.0 7 138
- 0.7792 3 2 ack 40 ------- 1 3.0 0.0 7 138
- 0.78 1 2 cbr 500 ------- 0 1.0 3.1 29 39
+ 0.78 1 2 cbr 500 ------- 0 1.0 3.1 116 139
+ 0.785 1 2 cbr 500 ------- 0 1.0 3.1 117 140
d 0.785 1 2 cbr 500 ------- 0 1.0 3.1 117 140
- 0.7892 2 3 cbr 500 ------- 0 1.0 3.1 15 22
r 0.79 1 2 cbr 500 ------- 0 1.0 3.1 28 38
+ 0.79 2 3 cbr 500 ------- 0 1.0 3.1 28 38
+ 0.79 1 2 cbr 500 ------- 0 1.0 3.1 118 141
d 0.79 1 2 cbr 500 ------- 0 1.0 3.1 118 141
r 0.7908 3 2 ack 40 ------- 1 3.0 0.0 7 138
+ 0.7908 2 0 ack 40 ------- 1 3.0 0.0 7 138
- 0.7908 2 0 ack 40 ------- 1 3.0 0.0 7 138
+ 0.795 1 2 cbr 500 ------- 0 1.0 3.1 119 142
d 0.795 1 2 cbr 500 ------- 0 1.0 3.1 119 142
r 0.7988 0 2 tcp 1040 ------- 1 0.0 3.0 14 122
+ 0.7988 2 3 tcp 1040 ------- 1 0.0 3.0 14 122
r 0.7992 2 3 cbr 500 ------- 0 1.0 3.1 14 19
- 0.8 1 2 cbr 500 ------- 0 1.0 3.1 30 40
+ 0.8 1 2 cbr 500 ------- 0 1.0 3.1 120 143
r 0.8024 2 0 ack 40 ------- 1 3.0 0.0 7 138
+ 0.8024 0 2 tcp 1040 ------- 1 0.0 3.0 15 144
- 0.8024 0 2 tcp 1040 ------- 1 0.0 3.0 15 144
+ 0.8024 0 2 tcp 1040 ------- 1 0.0 3.0 16 145
+ 0.805 1 2 cbr 500 ------- 0 1.0 3.1 121 146
d 0.805 1 2 cbr 500 ------- 0 1.0 3.1 121 146
- 0.8092 2 3 tcp 1040 ------- 1 0.0 3.0 8 64
r 0.81 1 2 cbr 500 ------- 0 1.0 3.1 29 39
+ 0.81 2 3 cbr 500 ------- 0 1.0 3.1 29 39
+ 0.81 1 2 cbr 500 ------- 0 1.0 3.1 122 147
d 0.81 1 2 cbr 500 ------- 0 1.0 3.1 122 147
+ 0.815 1 2 cbr 500 ------- 0 1.0 3.1 123 148
d 0.815 1 2 cbr 500 ------- 0 1.0 3.1 123 148
r 0.8192 2 3 cbr 500 ------- 0 1.0 3.1 15 22
- 0.82 1 2 cbr 500 ------- 0 1.0 3.1 31 41
+ 0.82 1 2 cbr 500 ------- 0 1.0 3.1 124 149
+ 0.825 1 2 cbr 500 ------- 0 1.0 3.1 125 150
d 0.825 1 2 cbr 500 ------- 0 1.0 3.1 125 150
r 0.83 1 2 cbr 500 ------- 0 1.0 3.1 30 40
+ 0.83 2 3 cbr 500 ------- 0 1.0 3.1 30 40
+ 0.83 1 2 cbr 500 ------- 0 1.0 3.1 126 151
d 0.83 1 2 cbr 500 ------- 0 1.0 3.1 126 151
+ 0.835 1 2 cbr 500 ------- 0 1.0 3.1 127 152
d 0.835 1 2 cbr 500 ------- 0 1.0 3.1 127 152
- 0.84 1 2 cbr 500 ------- 0 1.0 3.1 32 42
+ 0.84 1 2 cbr 500 ------- 0 1.0 3.1 128 153
- 0.844 0 2 tcp 1040 ------- 1 0.0 3.0 16 145
+ 0.845 1 2 cbr 500 ------- 0 1.0 3.1 129 154
d 0.845 1 2 cbr 500 ------- 0 1.0 3.1 129 154
r 0.85 1 2 cbr 500 ------- 0 1.0 3.1 31 41
+ 0.85 2 3 cbr 500 ------- 0 1.0 3.1 31 41
+ 0.85 1 2 cbr 500 ------- 0 1.0 3.1 130 155
d 0.85 1 2 cbr 500 ------- 0 1.0 3.1 130 155
- 0.8508 2 3 cbr 500 ------- 0 1.0 3.1 16 23
r 0.854 0 2 tcp 1040 ------- 1 0.0 3.0 15 144
+ 0.854 2 3 tcp 1040 ------- 1 0.0 3.0 15 144
+ 0.855 1 2 cbr 500 ------- 0 1.0 3.1 131 156
d 0.855 1 2 cbr 500 ------- 0 1.0 3.1 131 156
- 0.86 1 2 cbr 500 ------- 0 1.0 3.1 33 43
+ 0.86 1 2 cbr 500 ------- 0 1.0 3.1 132 157
r 0.8608 2 3 tcp 1040 ------- 1 0.0 3.0 8 64
+ 0.8608 3 2 ack 40 ------- 1 3.0 0.0 8 158
- 0.8608 3 2 ack 40 ------- 1 3.0 0.0 8 158
+ 0.865 1 2 cbr 500 ------- 0 1.0 3.1 133 159
d 0.865 1 2 cbr 500 ------- 0 1.0 3.1 133 159
r 0.87 1 2 cbr 500 ------- 0 1.0 3.1 32 42
+ 0.87 2 3 cbr 500 ------- 0 1.0 3.1 32 42
+ 0.87 1 2 cbr 500 ------- 0 1.0 3.1 134 160
d 0.87 1 2 cbr 500 ------- 0 1.0 3.1 134 160
- 0.8708 2 3 cbr 500 ------- 0 1.0 3.1 17 24
r 0.8724 3 2 ack 40 ------- 1 3.0 0.0 8 158
+ 0.8724 2 0 ack 40 ------- 1 3.0 0.0 8 158
- 0.8724 2 0 ack 40 ------- 1 3.0 0.0 8 158
+ 0.875 1 2 cbr 500 ------- 0 1.0 3.1 135 161
d 0.875 1 2 cbr 500 ------- 0 1.0 3.1 135 161
- 0.88 1 2 cbr 500 ------- 0 1.0 3.1 34 44
+ 0.88 1 2 cbr 500 ------- 0 1.0 3.1 136 162
r 0.8808 2 3 cbr 500 ------- 0 1.0 3.1 16 23
r 0.884 2 0 ack 40 ------- 1 3.0 0.0 8 158
+ 0.884 0 2 tcp 1040 ------- 1 0.0 3.0 17 163
+ 0.884 0 2 tcp 1040 ------- 1 0.0 3.0 18 164
+ 0.885 1 2 cbr 500 ------- 0 1.0 3.1 137 165
d 0.885 1 2 cbr 500 ------- 0 1.0 3.1 137 165
- 0.8856 0 2 tcp 1040 ------- 1 0.0 3.0 17 163
r 0.89 1 2 cbr 500 ------- 0 1.0 3.1 33 43
+ 0.89 2 3 cbr 500 ------- 0 1.0 3.1 33 43
+ 0.89 1 2 cbr 500 ------- 0 1.0 3.1 138 166
d 0.89 1 2 cbr 500 ------- 0 1.0 3.1 138 166
- 0.8908 2 3 cbr 500 ------- 0 1.0 3.1 18 25
+ 0.895 1 2 cbr 500 ------- 0 1.0 3.1 139 167
d 0.895 1 2 cbr 500 ------- 0 1.0 3.1 139 167
r 0.8956 0 2 tcp 1040 ------- 1 0.0 3.0 16 145
+ 0.8956 2 3 tcp 1040 ------- 1 0.0 3.0 16 145
- 0.9 1 2 cbr 500 ------- 0 1.0 3.1 35 45
+ 0.9 1 2 cbr 500 ------- 0 1.0 3.1 140 168
r 0.9008 2 3 cbr 500 ------- 0 1.0 3.1 17 24
+ 0.905 1 2 cbr 500 ------- 0 1.0 3.1 141 169
d 0.905 1 2 cbr 500 ------- 0 1.0 3.1 141 169
r 0.91 1 2 cbr 500 ------- 0 1.0 3.1 34 44
+ 0.91 2 3 cbr 500 ------- 0 1.0 3.1 34 44
+ 0.91 1 2 cbr 500 ------- 0 1.0 3.1 142 170
d 0.91 1 2 cbr 500 ------- 0 1.0 3.1 142 170
- 0.9108 2 3 tcp 1040 ------- 1 0.0 3.0 9 82
+ 0.915 1 2 cbr 500 ------- 0 1.0 3.1 143 171
d 0.915 1 2 cbr 500 ------- 0 1.0 3.1 143 171
- 0.92 1 2 cbr 500 ------- 0 1.0 3.1 36 46
+ 0.92 1 2 cbr 500 ------- 0 1.0 3.1 144 172
r 0.9208 2 3 cbr 500 ------- 0 1.0 3.1 18 25
+ 0.925 1 2 cbr 500 ------- 0 1.0 3.1 145 173
d 0.925 1 2 cbr 500 ------- 0 1.0 3.1 145 173
- 0.9272 0 2 tcp 1040 ------- 1 0.0 3.0 18 164
r 0.93 1 2 cbr 500 ------- 0 1.0 3.1 35 45
+ 0.93 2 3 cbr 500 ------- 0 1.0 3.1 35 45
+ 0.93 1 2 cbr 500 ------- 0 1.0 3.1 146 174
d 0.93 1 2 cbr 500 ------- 0 1.0 3.1 146 174
+ 0.935 1 2 cbr 500 ------- 0 1.0 3.1 147 175
d 0.935 1 2 cbr 500 ------- 0 1.0 3.1 147 175
r 0.9372 0 2 tcp 1040 ------- 1 0.0 3.0 17 163
+ 0.9372 2 3 tcp 1040 ------- 1 0.0 3.0 17 163
- 0.94 1 2 cbr 500 ------- 0 1.0 3.1 37 47
+ 0.94 1 2 cbr 500 ------- 0 1.0 3.1 148 176
+ 0.945 1 2 cbr 500 ------- 0 1.0 3.1 149 177
d 0.945 1 2 cbr 500 ------- 0 1.0 3.1 149 177
r 0.95 1 2 cbr 500 ------- 0 1.0 3.1 36 46
+ 0.95 2 3 cbr 500 ------- 0 1.0 3.1 36 46
+ 0.95 1 2 cbr 500 ------- 0 1.0 3.1 150 178
d 0.95 1 2 cbr 500 ------- 0 1.0 3.1 150 178
- 0.9524 2 3 cbr 500 ------- 0 1.0 3.1 19 26
+ 0.955 1 2 cbr 500 ------- 0 1.0 3.1 151 179
d 0.955 1 2 cbr 500 ------- 0 1.0 3.1 151 179
- 0.96 1 2 cbr 500 ------- 0 1.0 3.1 38 48
+ 0.96 1 2 cbr 500 ------- 0 1.0 3.1 152 180
r 0.9624 2 3 tcp 1040 ------- 1 0.0 3.0 9 82
+ 0.9624 3 2 ack 40 ------- 1 3.0 0.0 9 181
- 0.9624 3 2 ack 40 ------- 1 3.0 0.0 9 181
+ 0.965 1 2 cbr 500 ------- 0 1.0 3.1 153 182
d 0.965 1 2 cbr 500 ------- 0 1.0 3.1 153 182
r 0.97 1 2 cbr 500 ------- 0 1.0 3.1 37 47
+ 0.97 2 3 cbr 500 ------- 0 1.0 3.1 37 47
+ 0.97 1 2 cbr 500 ------- 0 1.0 3.1 154 183
d 0.97 1 2 cbr 500 ------- 0 1.0 3.1 154 183
- 0.9724 2 3 cbr 500 ------- 0 1.0 3.1 20 27
r 0.974 3 2 ack 40 ------- 1 3.0 0.0 9 181
+ 0.974 2 0 ack 40 ------- 1 3.0 0.0 9 181
- 0.974 2 0 ack 40 ------- 1 3.0 0.0 9 181
+ 0.975 1 2 cbr 500 ------- 0 1.0 3.1 155 184
d 0.975 1 2 cbr 500 ------- 0 1.0 3.1 155 184
r 0.9788 0 2 tcp 1040 ------- 1 0.0 3.0 18 164
+ 0.9788 2 3 tcp 1040 ------- 1 0.0 3.0 18 164
- 0.98 1 2 cbr 500 ------- 0 1.0 3.1 39 49
+ 0.98 1 2 cbr 500 ------- 0 1.0 3.1 156 185
r 0.9824 2 3 cbr 500 ------- 0 1.0 3.1 19 26
+ 0.985 1 2 cbr 500 ------- 0 1.0 3.1 157 186
d 0.985 1 2 cbr 500 ------- 0 1.0 3.1 157 186
r 0.9856 2 0 ack 40 ------- 1 3.0 0.0 9 181
+ 0.9856 0 2 tcp 1040 ------- 1 0.0 3.0 19 187
- 0.9856 0 2 tcp 1040 ------- 1 0.0 3.0 19 187
+ 0.9856 0 2 tcp 1040 ------- 1 0.0 3.0 20 188
r 0.99 1 2 cbr 500 ------- 0 1.0 3.1 38 48
+ 0.99 2 3 cbr 500 ------- 0 1.0 3.1 38 48
+ 0.99 1 2 cbr 500 ------- 0 1.0 3.1 158 189
d 0.99 1 2 cbr 500 ------- 0 1.0 3.1 158 189
- 0.9924 2 3 tcp 1040 ------- 1 0.0 3.0 10 83
+ 0.995 1 2 cbr 500 ------- 0 1.0 3.1 159 190
d 0.995 1 2 cbr 500 ------- 0 1.0 3.1 159 190
- 1 1 2 cbr 500 ------- 0 1.0 3.1 40 50
+ 1 1 2 cbr 500 ------- 0 1.0 3.1 160 191
r 1.0024 2 3 cbr 500 ------- 0 1.0 3.1 20 27
+ 1.005 1 2 cbr 500 ------- 0 1.0 3.1 161 192
d 1.005 1 2 cbr 500 ------- 0 1.0 3.1 161 192
+ 1.01 1 2 cbr 500 ------- 0 1.0 3.1 162 193
d 1.01 1 2 cbr 500 ------- 0 1.0 3.1 162 193
r 1.01 1 2 cbr 500 ------- 0 1.0 3.1 39 49
+ 1.01 2 3 cbr 500 ------- 0 1.0 3.1 39 49
+ 1.015 1 2 cbr 500 ------- 0 1.0 3.1 163 194
d 1.015 1 2 cbr 500 ------- 0 1.0 3.1 163 194
+ 1.02 1 2 cbr 500 ------- 0 1.0 3.1 164 195
d 1.02 1 2 cbr 500 ------- 0 1.0 3.1 164 195
- 1.02 1 2 cbr 500 ------- 0 1.0 3.1 41 51
+ 1.025 1 2 cbr 500 ------- 0 1.0 3.1 165 196
- 1.0272 0 2 tcp 1040 ------- 1 0.0 3.0 20 188
+ 1.03 1 2 cbr 500 ------- 0 1.0 3.1 166 197
d 1.03 1 2 cbr 500 ------- 0 1.0 3.1 166 197
r 1.03 1 2 cbr 500 ------- 0 1.0 3.1 40 50
+ 1.03 2 3 cbr 500 ------- 0 1.0 3.1 40 50
- 1.034 2 3 cbr 500 ------- 0 1.0 3.1 21 28
+ 1.035 1 2 cbr 500 ------- 0 1.0 3.1 167 198
d 1.035 1 2 cbr 500 ------- 0 1.0 3.1 167 198
r 1.0372 0 2 tcp 1040 ------- 1 0.0 3.0 19 187
+ 1.0372 2 3 tcp 1040 ------- 1 0.0 3.0 19 187
+ 1.04 1 2 cbr 500 ------- 0 1.0 3.1 168 199
d 1.04 1 2 cbr 500 ------- 0 1.0 3.1 168 199
- 1.04 1 2 cbr 500 ------- 0 1.0 3.1 42 52
r 1.044 2 3 tcp 1040 ------- 1 0.0 3.0 10 83
+ 1.044 3 2 ack 40 ------- 1 3.0 0.0 10 200
- 1.044 3 2 ack 40 ------- 1 3.0 0.0 10 200
+ 1.045 1 2 cbr 500 ------- 0 1.0 3.1 169 201
+ 1.05 1 2 cbr 500 ------- 0 1.0 3.1 170 202
d 1.05 1 2 cbr 500 ------- 0 1.0 3.1 170 202
r 1.05 1 2 cbr 500 ------- 0 1.0 3.1 41 51
+ 1.05 2 3 cbr 500 ------- 0 1.0 3.1 41 51
- 1.054 2 3 cbr 500 ------- 0 1.0 3.1 22 29
+ 1.055 1 2 cbr 500 ------- 0 1.0 3.1 171 203
d 1.055 1 2 cbr 500 ------- 0 1.0 3.1 171 203
r 1.0556 3 2 ack 40 ------- 1 3.0 0.0 10 200
+ 1.0556 2 0 ack 40 ------- 1 3.0 0.0 10 200
- 1.0556 2 0 ack 40 ------- 1 3.0 0.0 10 200
+ 1.06 1 2 cbr 500 ------- 0 1.0 3.1 172 204
d 1.06 1 2 cbr 500 ------- 0 1.0 3.1 172 204
- 1.06 1 2 cbr 500 ------- 0 1.0 3.1 43 53
r 1.064 2 3 cbr 500 ------- 0 1.0 3.1 21 28
+ 1.065 1 2 cbr 500 ------- 0 1.0 3.1 173 205
r 1.0672 2 0 ack 40 ------- 1 3.0 0.0 10 200
+ 1.0672 0 2 tcp 1040 ------- 1 0.0 3.0 21 206
+ 1.0672 0 2 tcp 1040 ------- 1 0.0 3.0 22 207
- 1.0688 0 2 tcp 1040 ------- 1 0.0 3.0 21 206
+ 1.07 1 2 cbr 500 ------- 0 1.0 3.1 174 208
d 1.07 1 2 cbr 500 ------- 0 1.0 3.1 174 208
r 1.07 1 2 cbr 500 ------- 0 1.0 3.1 42 52
+ 1.07 2 3 cbr 500 ------- 0 1.0 3.1 42 52
- 1.074 2 3 tcp 1040 ------- 1 0.0 3.0 11 101
+ 1.075 1 2 cbr 500 ------- 0 1.0 3.1 175 209
d 1.075 1 2 cbr 500 ------- 0 1.0 3.1 175 209
r 1.0788 0 2 tcp 1040 ------- 1 0.0 3.0 20 188
+ 1.0788 2 3 tcp 1040 ------- 1 0.0 3.0 20 188
+ 1.08 1 2 cbr 500 ------- 0 1.0 3.1 176 210
d 1.08 1 2 cbr 500 ------- 0 1.0 3.1 176 210
- 1.08 1 2 cbr 500 ------- 0 1.0 3.1 44 54
r 1.084 2 3 cbr 500 ------- 0 1.0 3.1 22 29
+ 1.085 1 2 cbr 500 ------- 0 1.0 3.1 177 211
+ 1.09 1 2 cbr 500 ------- 0 1.0 3.1 178 212
d 1.09 1 2 cbr 500 ------- 0 1.0 3.1 178 212
r 1.09 1 2 cbr 500 ------- 0 1.0 3.1 43 53
+ 1.09 2 3 cbr 500 ------- 0 1.0 3.1 43 53
+ 1.095 1 2 cbr 500 ------- 0 1.0 3.1 179 213
d 1.095 1 2 cbr 500 ------- 0 1.0 3.1 179 213
+ 1.1 1 2 cbr 500 ------- 0 1.0 3.1 180 214
d 1.1 1 2 cbr 500 ------- 0 1.0 3.1 180 214
- 1.1 1 2 cbr 500 ------- 0 1.0 3.1 45 55
+ 1.105 1 2 cbr 500 ------- 0 1.0 3.1 181 215
+ 1.11 1 2 cbr 500 ------- 0 1.0 3.1 182 216
d 1.11 1 2 cbr 500 ------- 0 1.0 3.1 182 216
r 1.11 1 2 cbr 500 ------- 0 1.0 3.1 44 54
+ 1.11 2 3 cbr 500 ------- 0 1.0 3.1 44 54
- 1.1104 0 2 tcp 1040 ------- 1 0.0 3.0 22 207
+ 1.115 1 2 cbr 500 ------- 0 1.0 3.1 183 217
d 1.115 1 2 cbr 500 ------- 0 1.0 3.1 183 217
- 1.1156 2 3 cbr 500 ------- 0 1.0 3.1 23 31
+ 1.12 1 2 cbr 500 ------- 0 1.0 3.1 184 218
d 1.12 1 2 cbr 500 ------- 0 1.0 3.1 184 218
- 1.12 1 2 cbr 500 ------- 0 1.0 3.1 46 56
r 1.1204 0 2 tcp 1040 ------- 1 0.0 3.0 21 206
+ 1.1204 2 3 tcp 1040 ------- 1 0.0 3.0 21 206
+ 1.125 1 2 cbr 500 ------- 0 1.0 3.1 185 219
r 1.1256 2 3 tcp 1040 ------- 1 0.0 3.0 11 101
+ 1.1256 3 2 ack 40 ------- 1 3.0 0.0 11 220
- 1.1256 3 2 ack 40 ------- 1 3.0 0.0 11 220
+ 1.13 1 2 cbr 500 ------- 0 1.0 3.1 186 221
d 1.13 1 2 cbr 500 ------- 0 1.0 3.1 186 221
r 1.13 1 2 cbr 500 ------- 0 1.0 3.1 45 55
+ 1.13 2 3 cbr 500 ------- 0 1.0 3.1 45 55
+ 1.135 1 2 cbr 500 ------- 0 1.0 3.1 187 222
d 1.135 1 2 cbr 500 ------- 0 1.0 3.1 187 222
- 1.1356 2 3 cbr 500 ------- 0 1.0 3.1 24 32
r 1.1372 3 2 ack 40 ------- 1 3.0 0.0 11 220
+ 1.1372 2 0 ack 40 ------- 1 3.0 0.0 11 220
- 1.1372 2 0 ack 40 ------- 1 3.0 0.0 11 220
+ 1.14 1 2 cbr 500 ------- 0 1.0 3.1 188 223
d 1.14 1 2 cbr 500 ------- 0 1.0 3.1 188 223
- 1.14 1 2 cbr 500 ------- 0 1.0 3.1 47 58
+ 1.145 1 2 cbr 500 ------- 0 1.0 3.1 189 224
r 1.1456 2 3 cbr 500 ------- 0 1.0 3.1 23 31
r 1.1488 2 0 ack 40 ------- 1 3.0 0.0 11 220
+ 1.1488 0 2 tcp 1040 ------- 1 0.0 3.0 23 225
+ 1.1488 0 2 tcp 1040 ------- 1 0.0 3.0 24 226
+ 1.15 1 2 cbr 500 ------- 0 1.0 3.1 190 227
d 1.15 1 2 cbr 500 ------- 0 1.0 3.1 190 227
r 1.15 1 2 cbr 500 ------- 0 1.0 3.1 46 56
+ 1.15 2 3 cbr 500 ------- 0 1.0 3.1 46 56
- 1.152 0 2 tcp 1040 ------- 1 0.0 3.0 23 225
+ 1.155 1 2 cbr 500 ------- 0 1.0 3.1 191 228
d 1.155 1 2 cbr 500 ------- 0 1.0 3.1 191 228
- 1.1556 2 3 tcp 1040 ------- 1 0.0 3.0 12 102
+ 1.16 1 2 cbr 500 ------- 0 1.0 3.1 192 229
d 1.16 1 2 cbr 500 ------- 0 1.0 3.1 192 229
- 1.16 1 2 cbr 500 ------- 0 1.0 3.1 48 59
r 1.162 0 2 tcp 1040 ------- 1 0.0 3.0 22 207
+ 1.162 2 3 tcp 1040 ------- 1 0.0 3.0 22 207
+ 1.165 1 2 cbr 500 ------- 0 1.0 3.1 193 230
r 1.1656 2 3 cbr 500 ------- 0 1.0 3.1 24 32
+ 1.17 1 2 cbr 500 ------- 0 1.0 3.1 194 231
d 1.17 1 2 cbr 500 ------- 0 1.0 3.1 194 231
r 1.17 1 2 cbr 500 ------- 0 1.0 3.1 47 58